/*--------------------------------*- C++ -*----------------------------------*\
  =========                 |
  \\      /  F ield         | OpenFOAM: The Open Source CFD Toolbox
   \\    /   O peration     | Website:  https://openfoam.org
    \\  /    A nd           | Version:  13
     \\/     M anipulation  |
\*---------------------------------------------------------------------------*/
FoamFile
{
    format      ascii;
    class       surfaceScalarField;
    location    "0.0004";
    object      phi;
}
// * * * * * * * * * * * * * * * * * * * * * * * * * * * * * * * * * * * * * //

dimensions      [1 0 -1 0 0 0 0];

internalField   nonuniform List<scalar> 
66301
(
0
0
1.11022e-16
-1.11022e-16
0
-2.22045e-16
-5.55112e-16
-1.11022e-16
0
2.22045e-16
2.22045e-16
2.22045e-16
3.33067e-16
0
-3.33067e-16
2.22045e-16
0
1.11022e-16
0
2.22045e-16
2.22045e-16
3.33067e-16
-5.55112e-16
-3.33067e-16
0
1.11022e-16
4.44089e-16
0
-5.55112e-16
-3.33067e-16
0
1.11022e-16
-2.22045e-16
-1.11022e-16
-4.44089e-16
2.22045e-16
2.22045e-16
5.55112e-16
0
0
-3.33067e-16
1.11022e-16
-1.11022e-16
0
-1.11022e-16
-1.11022e-16
-1.11022e-16
1.11022e-16
-3.33067e-16
0
-2.22045e-16
-1.11022e-16
-2.22045e-16
0
-1.11022e-16
0
0
0
2.22045e-16
2.22045e-16
2.22045e-16
2.22045e-16
1.11022e-16
1.11022e-16
0
2.22045e-16
-1.11022e-16
1.11022e-16
3.33067e-16
4.44089e-16
6.66134e-16
5.55112e-16
-1.11022e-16
0
1.11022e-16
4.44089e-16
0
3.33067e-16
3.33067e-16
5.55112e-16
-2.22045e-16
2.22045e-16
-2.22045e-16
2.22045e-16
-2.22045e-16
0
-1.11022e-16
-3.33067e-16
-3.33067e-16
0
0
0
-1.11022e-16
0
2.22045e-16
-1.11022e-16
2.22045e-16
-3.33067e-16
1.11022e-16
-3.33067e-16
-1.11022e-16
1.11022e-16
4.44089e-16
2.22045e-16
-2.22045e-16
-3.33067e-16
-2.22045e-16
-1.11022e-16
0
1.11022e-16
1.11022e-16
0
1.11022e-16
-3.33067e-16
0
-2.22045e-16
-3.33067e-16
-1.11022e-16
-2.22045e-16
-2.22045e-16
0
0
0
2.22045e-16
-2.22045e-16
2.22045e-16
0
5.55112e-16
-5.55112e-16
2.22045e-16
-4.44089e-16
5.55112e-16
1.35669e-13
0
7.07241e-10
1.44329e-15
3.92842e-07
1.75171e-12
3.14558e-05
1.71471e-10
0.000555559
3.48589e-09
0.00343555
2.48049e-08
0.0111251
8.92342e-08
0.0246756
2.12442e-07
0.0436334
3.92685e-07
0.0668184
6.17147e-07
0.0928833
8.70592e-07
0.120598
1.13982e-06
0.148956
1.41479e-06
0.177178
1.68864e-06
0.204663
1.9577e-06
0.230912
2.22229e-06
0.255431
2.47567e-06
0.277621
2.74137e-06
0.296696
3.02703e-06
0.311735
3.34315e-06
0.322035
3.73067e-06
0.327698
4.19484e-06
0.329798
4.72037e-06
0.330161
5.74313e-06
0.329898
3.68866e-06
0.329315
4.71139e-06
0.329065
5.00559e-06
0.328788
5.29341e-06
0.328078
5.02476e-06
0.327278
4.61894e-06
0.327109
5.08678e-06
0.327351
3.504e-06
0.327727
4.11113e-06
0.327479
3.02265e-06
0.326352
3.42539e-06
0.325714
2.08609e-06
0.327069
1.98112e-07
0.331107
-1.46098e-06
0.341837
-4.38099e-06
0.3698
-6.85224e-06
0.425629
-7.91099e-06
0.517582
-8.47089e-06
0.631883
-8.55817e-06
0.723138
-6.50098e-06
0.759221
-7.47946e-06
0.769208
-8.09391e-06
0.771443
-4.45405e-06
0.771479
-5.69694e-06
0.768652
-6.21225e-06
0.761269
-6.61647e-06
0.738919
-6.71759e-06
0.67851
-6.52072e-06
0.521903
-5.73162e-06
0.238516
-3.81105e-06
0.0337293
-1.21469e-06
0.000796617
-1.24228e-07
2.08161e-06
-2.64826e-09
4.37792e-10
-5.24047e-12
3.30846e-14
-1.94289e-15
-2.22045e-16
-3.88578e-16
-3.88578e-16
-3.33067e-16
-5.55112e-16
-5.55112e-16
3.33067e-16
-2.22045e-16
1.11022e-16
-1.66533e-16
-4.44089e-16
-4.44089e-16
-2.22045e-16
-1.66533e-16
5.55112e-16
-2.22045e-16
2.22045e-16
-2.22045e-16
-1.11022e-16
-4.44089e-16
-3.88578e-16
-4.996e-16
4.996e-16
-2.77556e-16
2.22045e-16
-3.88578e-16
5.55112e-17
-4.44089e-16
-3.33067e-16
-4.44089e-16
-5.55112e-17
-7.77156e-16
-1.11022e-16
-6.10623e-16
-3.88578e-16
-4.996e-16
2.22045e-16
-2.22045e-16
1.11022e-16
-3.88578e-16
1.66533e-16
-5.55112e-17
-1.11022e-16
-4.44089e-16
-4.996e-16
-4.44089e-16
-6.10623e-16
-7.77156e-16
-5.55112e-17
-3.33067e-16
0
-1.66533e-16
-3.33067e-16
-6.10623e-16
-5.55112e-16
-3.88578e-16
3.33067e-16
-5.55112e-17
-1.66533e-16
-3.33067e-16
-1.66533e-16
-2.77556e-16
-2.22045e-16
0
3.88578e-16
2.22045e-16
-1.11022e-16
-3.33067e-16
-2.77556e-16
-5.55112e-16
2.22045e-16
-4.44089e-16
5.55112e-17
-5.55112e-16
3.33067e-16
0
1.11022e-16
-4.44089e-16
-1.66533e-16
-3.33067e-16
-3.33067e-16
0
0
0
0
0
0
1.11022e-16
2.22045e-16
4.44089e-16
0
0
-2.22045e-16
4.44089e-16
-2.22045e-16
-1.11022e-16
2.22045e-16
0
0
0
1.11022e-16
-5.55112e-16
3.33067e-16
-1.11022e-16
5.55112e-16
0
5.55112e-16
-1.11022e-16
1.11022e-16
-2.22045e-16
1.11022e-16
-2.22045e-16
1.11022e-16
3.33067e-16
1.11022e-16
-1.11022e-16
2.22045e-16
0
-1.11022e-16
1.11022e-16
-1.11022e-16
-4.44089e-16
-4.44089e-16
-1.11022e-16
-2.22045e-16
1.11022e-16
1.11022e-16
-2.22045e-16
0
-3.33067e-16
0
-2.22045e-16
-3.33067e-16
0
-2.22045e-16
0
-2.22045e-16
1.11022e-16
2.22045e-16
3.33067e-16
2.22045e-16
2.22045e-16
3.33067e-16
1.11022e-16
1.11022e-16
0
1.11022e-16
-1.11022e-16
1.11022e-16
3.33067e-16
1.11022e-16
0
-2.22045e-16
0
-2.22045e-16
0
1.11022e-16
4.44089e-16
2.22045e-16
4.44089e-16
2.22045e-16
-2.22045e-16
0
-2.22045e-16
-3.33067e-16
0
0
0
-2.22045e-16
-1.11022e-16
-1.11022e-16
-2.22045e-16
0
0
0
-3.33067e-16
-2.22045e-16
1.11022e-16
0
2.22045e-16
-1.11022e-16
0
1.11022e-16
-3.33067e-16
0
-1.11022e-16
2.22045e-16
2.22045e-16
2.22045e-16
0
0
1.11022e-16
-3.33067e-16
1.11022e-16
-5.55112e-16
3.33067e-16
-3.33067e-16
-3.33067e-16
-2.22045e-16
-2.22045e-16
-1.11022e-16
0
0
0
1.11022e-16
0
1.11022e-16
-4.44089e-16
1.11022e-16
-2.22045e-16
0
-2.22045e-16
1.11022e-16
1.35114e-13
0
7.07272e-10
1.55431e-15
3.92857e-07
8.83182e-13
3.14568e-05
8.92183e-11
0.000555574
2.03084e-09
0.00343563
1.5789e-08
0.0111253
6.1179e-08
0.0246761
1.55146e-07
0.0436344
3.0219e-07
0.0668202
4.95488e-07
0.0928861
7.22996e-07
0.120602
9.72404e-07
0.148961
1.23354e-06
0.177185
1.49918e-06
0.204672
1.76527e-06
0.230924
2.03243e-06
0.255446
2.29062e-06
0.277639
2.5517e-06
0.296716
2.83742e-06
0.311759
3.15589e-06
0.322063
3.55352e-06
0.32773
3.98593e-06
0.329833
4.45806e-06
0.330204
4.8552e-06
0.329946
4.69241e-06
0.329366
4.58754e-06
0.329121
4.56117e-06
0.32885
4.91564e-06
0.328145
4.29368e-06
0.32735
4.44077e-06
0.327188
4.27239e-06
0.327432
3.77306e-06
0.327814
3.16047e-06
0.327568
2.92811e-06
0.326446
2.54671e-06
0.325809
2.05539e-06
0.327164
2.90057e-07
0.3312
-7.75018e-07
0.341923
-3.2821e-06
0.369876
-5.33692e-06
0.425693
-7.02695e-06
0.517637
-9.38884e-06
0.631936
-1.13374e-05
0.723194
-1.09492e-05
0.759281
-1.18111e-05
0.769266
-7.83387e-06
0.77149
-5.59092e-06
0.771527
-5.69841e-06
0.768689
-5.86352e-06
0.7613
-6.05299e-06
0.738942
-5.95449e-06
0.678525
-5.62741e-06
0.521912
-4.6449e-06
0.23852
-2.55455e-06
0.0337301
-7.52719e-07
0.000796645
-6.76957e-08
2.08171e-06
-1.17645e-09
4.37815e-10
-2.51305e-12
3.30846e-14
-1.16573e-15
-1.11022e-16
-4.996e-16
-1.11022e-16
-2.77556e-16
0
-2.22045e-16
2.77556e-16
-3.88578e-16
-2.77556e-16
-5.55112e-16
-2.22045e-16
-3.88578e-16
-1.11022e-16
-7.77156e-16
3.33067e-16
-7.21645e-16
1.11022e-16
-7.77156e-16
0
-1.05471e-15
-1.66533e-16
-8.88178e-16
4.44089e-16
-4.996e-16
3.33067e-16
-6.66134e-16
-1.66533e-16
-4.44089e-16
-6.66134e-16
-6.66134e-16
-1.11022e-16
-5.55112e-16
1.11022e-16
-4.44089e-16
-3.33067e-16
-5.55112e-16
0
-3.88578e-16
2.22045e-16
-2.22045e-16
0
-4.996e-16
-1.66533e-16
-4.996e-16
-8.32667e-16
-4.996e-16
-3.33067e-16
-3.33067e-16
1.11022e-16
-3.88578e-16
-3.88578e-16
-3.33067e-16
-1.11022e-16
-2.22045e-16
-1.66533e-16
0
2.77556e-16
0
-2.22045e-16
-2.22045e-16
-5.55112e-17
-5.55112e-17
5.55112e-17
-3.33067e-16
5.55112e-17
-2.22045e-16
-2.77556e-16
-4.44089e-16
-2.22045e-16
-4.44089e-16
1.11022e-16
-4.996e-16
2.77556e-16
-5.55112e-16
1.66533e-16
-6.66134e-16
2.22045e-16
-3.33067e-16
-2.22045e-16
-5.55112e-16
-6.10623e-16
2.22045e-16
0
2.22045e-16
-2.22045e-16
3.33067e-16
1.11022e-16
0
1.11022e-16
0
-2.22045e-16
0
-2.22045e-16
0
-1.11022e-16
-2.22045e-16
-4.44089e-16
-3.33067e-16
-3.33067e-16
1.11022e-16
-1.11022e-16
-4.44089e-16
-2.22045e-16
-3.33067e-16
-1.11022e-16
-3.33067e-16
-2.22045e-16
-2.22045e-16
0
-4.44089e-16
4.44089e-16
-1.11022e-16
5.55112e-16
1.11022e-16
5.55112e-16
0
1.11022e-16
-4.44089e-16
-1.11022e-16
0
3.33067e-16
-3.33067e-16
-2.22045e-16
-3.33067e-16
-3.33067e-16
0
-5.55112e-16
1.11022e-16
0
-6.66134e-16
-3.33067e-16
-1.11022e-16
3.33067e-16
2.22045e-16
4.44089e-16
2.22045e-16
0
3.33067e-16
1.11022e-16
2.22045e-16
-2.22045e-16
1.11022e-16
1.11022e-16
0
-2.22045e-16
-1.11022e-16
-4.44089e-16
4.44089e-16
3.33067e-16
2.22045e-16
-1.11022e-16
3.33067e-16
-3.33067e-16
1.11022e-16
-1.11022e-16
1.11022e-16
0
3.33067e-16
2.22045e-16
3.33067e-16
1.11022e-16
-3.33067e-16
0
4.44089e-16
1.11022e-16
-1.11022e-16
-3.33067e-16
-1.11022e-16
0
-1.11022e-16
-2.22045e-16
0
1.11022e-16
0
1.11022e-16
-1.11022e-16
3.33067e-16
2.22045e-16
3.33067e-16
2.22045e-16
2.22045e-16
1.11022e-16
2.22045e-16
-1.11022e-16
-5.55112e-16
-2.22045e-16
-3.33067e-16
1.11022e-16
-1.11022e-16
-1.11022e-16
-5.55112e-16
1.11022e-16
-1.11022e-16
1.11022e-16
-3.33067e-16
3.33067e-16
-5.55112e-16
0
-5.55112e-16
2.22045e-16
-5.55112e-16
1.11022e-16
-5.55112e-16
-1.11022e-16
-5.55112e-16
-3.33067e-16
-4.44089e-16
-5.55112e-16
-3.33067e-16
-1.11022e-16
-2.22045e-16
0
-8.88178e-16
1.34892e-13
-1.11022e-16
7.07308e-10
1.22125e-15
3.92871e-07
5.42899e-13
3.14576e-05
5.86847e-11
0.000555582
1.38768e-09
0.00343567
1.1106e-08
0.0111254
4.4465e-08
0.0246762
1.16901e-07
0.0436346
2.35938e-07
0.0668204
3.99277e-07
0.0928863
5.98155e-07
0.120602
8.21969e-07
0.148962
1.06133e-06
0.177185
1.30937e-06
0.204672
1.56194e-06
0.230924
1.81736e-06
0.255446
2.07416e-06
0.277639
2.33177e-06
0.296716
2.61048e-06
0.311759
2.92754e-06
0.322063
3.31219e-06
0.32773
3.68943e-06
0.329833
4.17413e-06
0.330204
4.08934e-06
0.329946
4.69185e-06
0.329366
4.39772e-06
0.329121
4.14918e-06
0.32885
4.5097e-06
0.328145
3.75864e-06
0.32735
3.88082e-06
0.327188
3.79952e-06
0.327432
3.44718e-06
0.327814
2.93976e-06
0.327568
2.57396e-06
0.326446
1.9002e-06
0.325809
1.40093e-06
0.327164
2.21161e-07
0.3312
-7.41488e-07
0.341922
-2.85424e-06
0.369874
-4.86046e-06
0.42569
-6.69983e-06
0.517633
-8.89262e-06
0.631933
-1.05785e-05
0.723194
-1.15647e-05
0.759283
-1.07588e-05
0.769268
-7.01817e-06
0.77149
-5.7425e-06
0.771527
-5.60402e-06
0.768689
-5.63123e-06
0.761299
-5.51216e-06
0.738941
-5.23283e-06
0.678524
-4.76776e-06
0.521912
-3.97286e-06
0.238522
-2.21114e-06
0.0337307
-6.35104e-07
0.00079667
-5.49884e-08
2.08181e-06
-8.94425e-10
4.37845e-10
-1.72462e-12
3.29736e-14
-6.10623e-16
-5.55112e-17
1.11022e-16
-3.88578e-16
-2.22045e-16
-1.11022e-16
1.11022e-16
5.55112e-17
-2.77556e-16
-1.11022e-16
-7.77156e-16
-5.55112e-16
-7.21645e-16
-2.22045e-16
-7.77156e-16
0
-8.88178e-16
-1.66533e-16
-7.77156e-16
5.55112e-17
-7.21645e-16
2.22045e-16
-6.10623e-16
2.22045e-16
-5.55112e-16
3.33067e-16
-6.66134e-16
-1.66533e-16
-7.77156e-16
-6.10623e-16
-8.88178e-16
-1.66533e-16
-3.33067e-16
1.11022e-16
-7.21645e-16
-3.33067e-16
-7.21645e-16
4.44089e-16
-1.66533e-16
1.66533e-16
-4.44089e-16
-1.11022e-16
-7.21645e-16
-1.66533e-16
-6.66134e-16
-6.10623e-16
-8.32667e-16
-3.33067e-16
-3.88578e-16
1.66533e-16
-3.33067e-16
0
-3.33067e-16
-5.55112e-17
-3.88578e-16
-3.33067e-16
-2.77556e-16
1.11022e-16
3.33067e-16
-5.55112e-17
0
-3.88578e-16
-1.66533e-16
1.11022e-16
0
0
-2.22045e-16
-5.55112e-17
-2.77556e-16
-1.11022e-16
-3.88578e-16
-5.55112e-17
-4.44089e-16
1.66533e-16
-4.44089e-16
3.88578e-16
-5.55112e-16
5.55112e-17
-6.10623e-16
-2.22045e-16
-6.10623e-16
-4.996e-16
0
0
4.44089e-16
1.11022e-16
0
-3.33067e-16
-2.22045e-16
-5.55112e-16
1.11022e-16
-2.22045e-16
0
-4.44089e-16
-1.11022e-16
-4.44089e-16
0
-2.22045e-16
2.22045e-16
-3.33067e-16
1.11022e-16
-6.66134e-16
-3.33067e-16
-1.11022e-16
-3.33067e-16
0
-2.22045e-16
-2.22045e-16
3.33067e-16
0
0
-1.11022e-16
0
-3.33067e-16
0
0
0
-1.11022e-16
-2.22045e-16
-1.11022e-16
-5.55112e-16
-1.11022e-16
2.22045e-16
0
-5.55112e-16
-1.11022e-16
2.22045e-16
1.11022e-16
0
-1.11022e-16
0
-3.33067e-16
0
-3.33067e-16
0
1.11022e-16
2.22045e-16
-3.33067e-16
1.11022e-16
0
0
0
2.22045e-16
-2.22045e-16
1.11022e-16
0
0
-3.33067e-16
2.22045e-16
-1.11022e-16
3.33067e-16
-2.22045e-16
2.22045e-16
-3.33067e-16
3.33067e-16
-1.11022e-16
1.11022e-16
-3.33067e-16
3.33067e-16
0
0
-1.11022e-16
0
-2.22045e-16
0
-3.33067e-16
0
-3.33067e-16
0
0
0
-1.11022e-16
0
-1.11022e-16
0
-2.22045e-16
-1.11022e-16
-2.22045e-16
0
-3.33067e-16
3.33067e-16
-3.33067e-16
-5.55112e-16
-2.22045e-16
0
-2.22045e-16
0
-1.11022e-16
0
-1.11022e-16
1.11022e-16
-2.22045e-16
-2.22045e-16
0
0
-1.11022e-16
3.33067e-16
-1.11022e-16
0
-4.44089e-16
2.22045e-16
-4.44089e-16
1.11022e-16
-4.44089e-16
0
-5.55112e-16
0
-4.44089e-16
-3.33067e-16
-7.77156e-16
-3.33067e-16
-3.33067e-16
0
-2.22045e-16
1.35336e-13
-3.33067e-16
7.07333e-10
7.77156e-16
3.92882e-07
3.58602e-13
3.14581e-05
4.02346e-11
0.000555589
9.81901e-10
0.0034357
8.07965e-09
0.0111255
3.31975e-08
0.0246764
8.94928e-08
0.0436347
1.85048e-07
0.0668205
3.20385e-07
0.0928865
4.90013e-07
0.120602
6.85737e-07
0.148962
8.99469e-07
0.177186
1.12483e-06
0.204673
1.35779e-06
0.230924
1.59643e-06
0.255446
1.84076e-06
0.277639
2.09062e-06
0.296717
2.35688e-06
0.31176
2.65405e-06
0.322063
3.00763e-06
0.32773
3.34961e-06
0.329832
3.8016e-06
0.330204
3.81429e-06
0.329946
4.33778e-06
0.329366
4.16095e-06
0.329121
3.94236e-06
0.32885
4.05648e-06
0.328145
3.4498e-06
0.32735
3.41846e-06
0.327187
3.36004e-06
0.327431
2.94344e-06
0.327813
2.59963e-06
0.327568
2.18963e-06
0.326445
1.42267e-06
0.325809
8.15143e-07
0.327164
-4.39145e-08
0.331199
-7.00089e-07
0.341921
-2.58245e-06
0.369872
-4.08733e-06
0.425687
-5.67836e-06
0.517629
-7.36865e-06
0.63193
-8.65268e-06
0.723192
-9.68794e-06
0.759284
-8.81569e-06
0.769269
-6.55672e-06
0.77149
-5.54778e-06
0.771527
-5.45403e-06
0.768688
-5.17432e-06
0.761298
-4.94718e-06
0.73894
-4.71431e-06
0.678525
-4.35211e-06
0.521914
-3.53231e-06
0.238523
-2.06402e-06
0.0337312
-5.84632e-07
0.000796693
-4.98836e-08
2.0819e-06
-7.99833e-10
4.37871e-10
-1.50352e-12
3.28626e-14
-6.66134e-16
-5.55112e-17
-3.88578e-16
-2.77556e-16
-3.88578e-16
-2.77556e-16
-6.66134e-16
-3.33067e-16
-6.10623e-16
-1.66533e-16
-4.996e-16
-2.22045e-16
-6.66134e-16
-1.66533e-16
-5.55112e-16
1.66533e-16
-4.996e-16
-1.66533e-16
-6.66134e-16
2.22045e-16
-3.88578e-16
1.66533e-16
-5.55112e-16
2.22045e-16
-4.44089e-16
2.77556e-16
-2.22045e-16
0
-3.88578e-16
-5.55112e-17
-4.44089e-16
-2.77556e-16
-6.10623e-16
5.55112e-17
-4.996e-16
2.22045e-16
-4.996e-16
0
-4.996e-16
0
-4.996e-16
-1.66533e-16
-7.77156e-16
-3.33067e-16
-5.55112e-16
-2.77556e-16
-3.88578e-16
-2.22045e-16
-6.10623e-16
-5.55112e-17
-3.88578e-16
-5.55112e-17
-5.55112e-17
2.22045e-16
-3.33067e-16
0
-5.55112e-16
-5.55112e-17
-5.55112e-16
-2.22045e-16
-5.55112e-16
-2.77556e-16
-4.44089e-16
-2.22045e-16
-6.10623e-16
-1.11022e-16
-5.55112e-16
-2.77556e-16
-3.88578e-16
-1.66533e-16
-6.10623e-16
5.55112e-17
-2.77556e-16
2.77556e-16
-5.55112e-17
3.33067e-16
-5.55112e-17
5.55112e-17
0
-5.55112e-17
5.55112e-17
0
0
0
-2.22045e-16
-1.11022e-16
0
-1.11022e-16
0
0
0
-1.11022e-16
0
2.22045e-16
3.33067e-16
0
0
-1.11022e-16
1.11022e-16
0
6.66134e-16
2.22045e-16
-2.22045e-16
0
-2.22045e-16
-2.22045e-16
-1.11022e-16
0
1.11022e-16
1.11022e-16
0
-1.11022e-16
0
-3.33067e-16
0
-4.44089e-16
-2.22045e-16
-6.66134e-16
-1.11022e-16
-5.55112e-16
-5.55112e-16
-6.66134e-16
-1.11022e-16
0
-4.44089e-16
-4.44089e-16
3.33067e-16
-2.22045e-16
-3.33067e-16
-2.22045e-16
-2.22045e-16
0
0
-5.55112e-16
-1.11022e-16
-3.33067e-16
0
-1.11022e-16
0
0
2.22045e-16
2.22045e-16
3.33067e-16
2.22045e-16
0
0
0
-3.33067e-16
2.22045e-16
-2.22045e-16
3.33067e-16
-2.22045e-16
2.22045e-16
-2.22045e-16
4.44089e-16
-2.22045e-16
4.44089e-16
-2.22045e-16
1.11022e-16
-3.33067e-16
-3.33067e-16
-4.44089e-16
-3.33067e-16
-2.22045e-16
-2.22045e-16
-5.55112e-16
0
-2.22045e-16
0
2.22045e-16
0
-2.22045e-16
0
-3.33067e-16
-1.11022e-16
0
-2.22045e-16
-3.33067e-16
2.22045e-16
-5.55112e-16
1.11022e-16
-4.44089e-16
-3.33067e-16
-2.22045e-16
0
-1.11022e-16
-3.33067e-16
1.11022e-16
1.11022e-16
3.33067e-16
0
0
-1.11022e-16
-1.11022e-16
-1.11022e-16
-1.11022e-16
0
-2.22045e-16
2.22045e-16
-3.33067e-16
1.11022e-16
1.11022e-16
1.11022e-16
0
-1.11022e-16
-2.22045e-16
-3.33067e-16
0
0
2.22045e-16
0
-1.11022e-16
0
-2.22045e-16
1.35336e-13
-4.44089e-16
7.07352e-10
1.11022e-16
3.92889e-07
2.23377e-13
3.14585e-05
2.5759e-11
0.000555594
6.52006e-10
0.00343572
5.58433e-09
0.0111255
2.38511e-08
0.0246764
6.65476e-08
0.0436348
1.4178e-07
0.0668207
2.51999e-07
0.0928867
3.94392e-07
0.120603
5.63012e-07
0.148962
7.51128e-07
0.177186
9.52959e-07
0.204673
1.16464e-06
0.230924
1.38446e-06
0.255446
1.61271e-06
0.277639
1.85107e-06
0.296717
2.10497e-06
0.31176
2.38097e-06
0.322063
2.70319e-06
0.327731
3.00126e-06
0.329833
3.3846e-06
0.330204
3.5562e-06
0.329946
3.87654e-06
0.329366
3.85323e-06
0.329121
3.75441e-06
0.328849
3.65228e-06
0.328145
3.21322e-06
0.327349
3.07196e-06
0.327187
3.0001e-06
0.327431
2.5118e-06
0.327813
2.25221e-06
0.327567
1.85405e-06
0.326444
1.10245e-06
0.325808
5.00031e-07
0.327163
-2.2593e-07
0.331198
-6.23804e-07
0.34192
-2.26901e-06
0.369871
-3.49992e-06
0.425686
-4.65784e-06
0.517628
-5.67464e-06
0.63193
-6.59164e-06
0.723192
-7.41124e-06
0.759285
-6.97665e-06
0.76927
-5.72519e-06
0.77149
-5.12229e-06
0.771527
-4.99099e-06
0.768688
-4.76892e-06
0.761298
-4.5481e-06
0.738941
-4.31894e-06
0.678525
-3.94833e-06
0.521915
-3.17763e-06
0.238525
-1.837e-06
0.0337318
-5.11666e-07
0.000796714
-4.29847e-08
2.08198e-06
-6.82483e-10
4.37893e-10
-1.27875e-12
3.28071e-14
-7.21645e-16
-5.55112e-17
-4.44089e-16
-5.55112e-16
-3.88578e-16
-3.33067e-16
-5.55112e-16
-1.11022e-16
-4.996e-16
-1.11022e-16
-5.55112e-17
-3.88578e-16
-3.33067e-16
-2.77556e-16
0
1.66533e-16
-1.66533e-16
-5.55112e-17
-1.11022e-16
1.11022e-16
0
3.33067e-16
5.55112e-17
3.88578e-16
-5.55112e-17
2.77556e-16
-1.11022e-16
-5.55112e-17
-2.22045e-16
-1.66533e-16
0
-1.66533e-16
-3.88578e-16
5.55112e-17
-6.10623e-16
-5.55112e-17
-6.66134e-16
1.11022e-16
-6.10623e-16
-1.66533e-16
-4.44089e-16
0
-3.33067e-16
-2.22045e-16
-3.33067e-16
-3.33067e-16
-1.66533e-16
-5.55112e-17
0
1.11022e-16
5.55112e-17
-2.22045e-16
-2.77556e-16
0
-5.55112e-17
5.55112e-17
2.77556e-16
-2.22045e-16
-5.55112e-17
-1.11022e-16
-5.55112e-17
-4.44089e-16
5.55112e-17
-1.66533e-16
-2.22045e-16
1.66533e-16
-1.11022e-16
-2.77556e-16
1.66533e-16
5.55112e-17
5.55112e-17
2.22045e-16
2.77556e-16
2.77556e-16
2.22045e-16
3.88578e-16
2.77556e-16
1.66533e-16
2.22045e-16
0
2.22045e-16
1.11022e-16
-1.11022e-16
-3.33067e-16
0
0
1.11022e-16
-1.11022e-16
-5.55112e-16
-3.33067e-16
3.33067e-16
1.11022e-16
0
0
0
0
0
-3.33067e-16
2.22045e-16
-3.33067e-16
1.11022e-16
-2.22045e-16
-2.22045e-16
-1.11022e-16
-3.33067e-16
-3.33067e-16
0
-1.11022e-16
0
0
-4.44089e-16
0
-2.22045e-16
-1.11022e-16
0
-1.11022e-16
0
0
-1.11022e-16
-1.11022e-16
3.33067e-16
4.44089e-16
-4.44089e-16
1.11022e-16
-1.11022e-16
-2.22045e-16
-1.11022e-16
-2.22045e-16
-1.11022e-16
1.11022e-16
-5.55112e-16
1.11022e-16
0
3.33067e-16
-2.22045e-16
0
1.11022e-16
0
1.11022e-16
0
1.11022e-16
-3.33067e-16
1.11022e-16
1.11022e-16
-1.11022e-16
-1.11022e-16
2.22045e-16
-4.44089e-16
3.33067e-16
-2.22045e-16
3.33067e-16
0
2.22045e-16
-2.22045e-16
1.11022e-16
-3.33067e-16
3.33067e-16
-2.22045e-16
-2.22045e-16
-5.55112e-16
0
-1.11022e-16
-2.22045e-16
-1.11022e-16
2.22045e-16
2.22045e-16
0
-3.33067e-16
-1.11022e-16
-5.55112e-16
-2.22045e-16
-1.11022e-16
2.22045e-16
-3.33067e-16
-2.22045e-16
-2.22045e-16
-1.11022e-16
-2.22045e-16
2.22045e-16
0
4.44089e-16
0
-3.33067e-16
-1.11022e-16
3.33067e-16
1.11022e-16
0
2.22045e-16
-2.22045e-16
3.33067e-16
-5.55112e-16
0
3.33067e-16
-1.11022e-16
0
-3.33067e-16
-1.11022e-16
-2.22045e-16
0
-4.44089e-16
0
-1.11022e-16
0
-2.22045e-16
0
-2.22045e-16
0
-3.33067e-16
-5.55112e-16
-3.33067e-16
-3.33067e-16
-2.22045e-16
1.11022e-16
-5.55112e-16
1.3578e-13
-3.33067e-16
7.07363e-10
-2.22045e-16
3.92893e-07
1.23346e-13
3.14588e-05
1.48381e-11
0.000555597
3.95895e-10
0.00343573
3.59083e-09
0.0111256
1.61819e-08
0.0246765
4.72574e-08
0.0436349
1.04547e-07
0.0668209
1.91771e-07
0.0928868
3.08313e-07
0.120603
4.50426e-07
0.148962
6.12961e-07
0.177186
7.90955e-07
0.204673
9.80778e-07
0.230925
1.18078e-06
0.255446
1.39146e-06
0.277639
1.6152e-06
0.296717
1.85595e-06
0.31176
2.11476e-06
0.322064
2.40821e-06
0.327731
2.67547e-06
0.329833
3.00517e-06
0.330204
3.2332e-06
0.329946
3.44532e-06
0.329366
3.51647e-06
0.329121
3.5251e-06
0.328849
3.32512e-06
0.328144
2.96334e-06
0.327349
2.78874e-06
0.327187
2.71866e-06
0.32743
2.18708e-06
0.327812
1.94751e-06
0.327567
1.58581e-06
0.326443
9.07937e-07
0.325807
3.5164e-07
0.327162
-3.13666e-07
0.331197
-6.16092e-07
0.341919
-1.92364e-06
0.36987
-2.85814e-06
0.425685
-3.72706e-06
0.517628
-4.41519e-06
0.63193
-5.08897e-06
0.723193
-5.54471e-06
0.759286
-5.27116e-06
0.769271
-4.8228e-06
0.771491
-4.60359e-06
0.771527
-4.48858e-06
0.768688
-4.32072e-06
0.761299
-4.12122e-06
0.738941
-3.8707e-06
0.678526
-3.47253e-06
0.521917
-2.74541e-06
0.238527
-1.54951e-06
0.0337322
-4.21629e-07
0.000796731
-3.47102e-08
2.08204e-06
-5.42594e-10
4.37911e-10
-1.00514e-12
3.28071e-14
-4.44089e-16
-2.22045e-16
5.55112e-17
-7.21645e-16
-6.10623e-16
-2.22045e-16
-1.66533e-16
0
0
-3.88578e-16
-5.55112e-17
-1.11022e-16
-1.11022e-16
-3.33067e-16
0
1.66533e-16
1.66533e-16
1.11022e-16
0
1.66533e-16
-5.55112e-17
2.22045e-16
5.55112e-17
2.77556e-16
-1.66533e-16
2.77556e-16
-2.77556e-16
-5.55112e-17
-3.33067e-16
-7.77156e-16
-3.88578e-16
-3.88578e-16
-1.66533e-16
1.11022e-16
-1.66533e-16
0
-3.88578e-16
4.996e-16
-2.22045e-16
0
-2.77556e-16
0
-1.66533e-16
-1.66533e-16
0
-2.22045e-16
5.55112e-17
-1.66533e-16
2.77556e-16
-5.55112e-17
2.22045e-16
-1.11022e-16
5.55112e-17
3.88578e-16
4.996e-16
-2.77556e-16
1.11022e-16
-5.55112e-17
1.66533e-16
-1.66533e-16
-1.66533e-16
-6.66134e-16
-2.22045e-16
-5.55112e-17
-5.55112e-17
3.88578e-16
1.11022e-16
-3.33067e-16
-1.66533e-16
3.88578e-16
1.66533e-16
2.22045e-16
0
3.33067e-16
1.66533e-16
3.33067e-16
3.33067e-16
0
1.66533e-16
-3.33067e-16
1.66533e-16
1.66533e-16
4.44089e-16
0
-5.55112e-16
-4.44089e-16
3.33067e-16
2.22045e-16
0
-1.11022e-16
3.33067e-16
-1.11022e-16
0
-1.11022e-16
1.11022e-16
-3.33067e-16
1.11022e-16
2.22045e-16
1.11022e-16
0
-1.11022e-16
-2.22045e-16
2.22045e-16
-1.11022e-16
1.11022e-16
0
1.11022e-16
0
-1.11022e-16
-7.77156e-16
-1.11022e-16
-1.11022e-16
-2.22045e-16
-2.22045e-16
0
1.11022e-16
-1.11022e-16
2.22045e-16
6.66134e-16
2.22045e-16
0
2.22045e-16
-5.55112e-16
1.11022e-16
-2.22045e-16
3.33067e-16
4.44089e-16
4.44089e-16
-1.11022e-16
0
-1.11022e-16
1.11022e-16
1.11022e-16
2.22045e-16
4.44089e-16
3.33067e-16
3.33067e-16
0
1.11022e-16
2.22045e-16
3.33067e-16
-1.11022e-16
0
-1.11022e-16
0
0
1.11022e-16
3.33067e-16
1.11022e-16
2.22045e-16
3.33067e-16
1.11022e-16
1.11022e-16
0
0
3.33067e-16
3.33067e-16
-1.11022e-16
3.33067e-16
0
4.44089e-16
-2.22045e-16
-3.33067e-16
-3.33067e-16
-1.11022e-16
-1.11022e-16
0
-2.22045e-16
2.22045e-16
-2.22045e-16
0
-3.33067e-16
1.11022e-16
-3.33067e-16
-1.11022e-16
-2.22045e-16
3.33067e-16
0
1.11022e-16
-1.11022e-16
3.33067e-16
0
0
-2.22045e-16
1.11022e-16
1.11022e-16
0
0
-2.22045e-16
0
-4.44089e-16
-1.11022e-16
-2.22045e-16
-3.33067e-16
0
-3.33067e-16
2.22045e-16
-1.11022e-16
0
-5.55112e-16
0
-3.33067e-16
-2.22045e-16
-3.33067e-16
-1.11022e-16
-2.22045e-16
-1.11022e-16
-1.11022e-16
-1.11022e-16
-2.22045e-16
-3.33067e-16
-3.33067e-16
-1.11022e-16
-2.22045e-16
1.35891e-13
-1.11022e-16
7.07368e-10
-3.33067e-16
3.92896e-07
5.39568e-14
3.1459e-05
7.27518e-12
0.0005556
2.12777e-10
0.00343575
2.11145e-09
0.0111256
1.02607e-08
0.0246766
3.18066e-08
0.043635
7.37368e-08
0.066821
1.40457e-07
0.092887
2.33029e-07
0.120603
3.49681e-07
0.148962
4.86916e-07
0.177186
6.40788e-07
0.204673
8.08057e-07
0.230925
9.8709e-07
0.255446
1.17841e-06
0.27764
1.38461e-06
0.296717
1.6096e-06
0.31176
1.85426e-06
0.322064
2.12183e-06
0.327731
2.38413e-06
0.329833
2.63841e-06
0.330204
2.93059e-06
0.329946
3.08193e-06
0.329365
3.179e-06
0.32912
3.23984e-06
0.328849
3.0471e-06
0.328144
2.73473e-06
0.327349
2.54992e-06
0.327186
2.47591e-06
0.32743
1.92958e-06
0.327812
1.70499e-06
0.327566
1.37741e-06
0.326443
7.91107e-07
0.325806
2.91186e-07
0.327161
-3.0694e-07
0.331196
-5.50417e-07
0.341919
-1.56477e-06
0.36987
-2.26636e-06
0.425685
-2.86233e-06
0.517628
-3.33661e-06
0.63193
-3.83013e-06
0.723194
-4.23226e-06
0.759287
-4.11304e-06
0.769271
-4.0404e-06
0.771491
-4.0311e-06
0.771528
-3.95256e-06
0.768689
-3.81314e-06
0.761299
-3.61676e-06
0.738942
-3.34862e-06
0.678527
-2.94092e-06
0.521918
-2.26442e-06
0.238528
-1.23878e-06
0.0337326
-3.25772e-07
0.000796746
-2.59579e-08
2.0821e-06
-3.94912e-10
4.37926e-10
-7.1626e-13
3.24185e-14
-8.88178e-16
-2.77556e-16
-3.33067e-16
-2.77556e-16
-4.44089e-16
0
-5.55112e-16
-5.55112e-17
-1.66533e-16
-3.33067e-16
-2.77556e-16
1.11022e-16
1.11022e-16
-1.11022e-16
0
-1.66533e-16
5.55112e-17
0
0
1.66533e-16
-1.11022e-16
1.11022e-16
-3.33067e-16
1.66533e-16
-1.11022e-16
3.33067e-16
-1.11022e-16
0
-3.33067e-16
-3.88578e-16
-4.44089e-16
-3.88578e-16
-6.66134e-16
-1.11022e-16
-5.55112e-16
1.66533e-16
-1.11022e-16
4.44089e-16
-1.11022e-16
1.66533e-16
0
1.66533e-16
-5.55112e-17
1.66533e-16
-1.66533e-16
0
-1.11022e-16
-2.22045e-16
0
-1.66533e-16
0
4.996e-16
3.33067e-16
-5.55112e-17
0
-1.11022e-16
-2.77556e-16
-2.77556e-16
-2.77556e-16
-3.33067e-16
-2.77556e-16
-3.33067e-16
-1.11022e-16
-1.11022e-16
-1.11022e-16
0
-1.66533e-16
0
-5.55112e-17
2.77556e-16
-3.33067e-16
2.77556e-16
-2.77556e-16
2.77556e-16
-1.11022e-16
2.22045e-16
-2.77556e-16
-1.11022e-16
-2.77556e-16
-3.33067e-16
-4.44089e-16
-3.88578e-16
2.22045e-16
-2.22045e-16
2.22045e-16
2.22045e-16
-2.22045e-16
1.11022e-16
0
4.44089e-16
0
2.22045e-16
-2.22045e-16
0
0
1.11022e-16
-2.22045e-16
0
0
2.22045e-16
1.11022e-16
0
0
1.11022e-16
-1.11022e-16
0
-5.55112e-16
0
2.22045e-16
2.22045e-16
-3.33067e-16
0
0
2.22045e-16
0
1.11022e-16
-3.33067e-16
2.22045e-16
4.44089e-16
3.33067e-16
0
-2.22045e-16
-4.44089e-16
2.22045e-16
1.11022e-16
7.77156e-16
-2.22045e-16
3.33067e-16
2.22045e-16
2.22045e-16
-4.44089e-16
1.11022e-16
0
2.22045e-16
1.11022e-16
-1.11022e-16
2.22045e-16
1.11022e-16
-2.22045e-16
3.33067e-16
4.44089e-16
5.55112e-16
3.33067e-16
0
0
0
0
-2.22045e-16
2.22045e-16
-3.33067e-16
3.33067e-16
-1.11022e-16
1.11022e-16
-2.22045e-16
-2.22045e-16
0
2.22045e-16
0
-1.11022e-16
1.11022e-16
1.11022e-16
1.11022e-16
-2.22045e-16
0
-1.11022e-16
-5.55112e-16
0
-5.55112e-16
0
-1.11022e-16
0
-3.33067e-16
1.11022e-16
-2.22045e-16
-1.11022e-16
1.11022e-16
2.22045e-16
0
2.22045e-16
-3.33067e-16
4.44089e-16
-3.33067e-16
3.33067e-16
-3.33067e-16
2.22045e-16
-1.11022e-16
-2.22045e-16
-2.22045e-16
-5.55112e-16
-1.11022e-16
-7.77156e-16
-1.11022e-16
-3.33067e-16
-2.22045e-16
0
0
0
0
1.11022e-16
0
1.11022e-16
-4.44089e-16
-1.11022e-16
-5.55112e-16
0
-4.44089e-16
-1.11022e-16
-4.44089e-16
-4.44089e-16
-1.11022e-16
-3.33067e-16
-2.22045e-16
-1.11022e-16
0
1.35891e-13
-2.22045e-16
7.0737e-10
-2.22045e-16
3.92897e-07
1.12133e-14
3.14591e-05
2.45792e-12
0.000555601
9.39773e-11
0.00343575
1.09843e-09
0.0111256
5.98464e-09
0.0246766
2.00958e-08
0.0436351
4.93897e-08
0.0668211
9.84217e-08
0.0928871
1.69378e-07
0.120603
2.62097e-07
0.148962
3.74666e-07
0.177186
5.0431e-07
0.204673
6.48394e-07
0.230925
8.05397e-07
0.255447
9.75715e-07
0.27764
1.16198e-06
0.296717
1.36811e-06
0.31176
1.59748e-06
0.322064
1.84123e-06
0.327731
2.11298e-06
0.329833
2.28593e-06
0.330204
2.65679e-06
0.329946
2.75665e-06
0.329365
2.85471e-06
0.32912
2.93356e-06
0.328849
2.7985e-06
0.328144
2.53327e-06
0.327349
2.35989e-06
0.327186
2.2738e-06
0.32743
1.73385e-06
0.327811
1.51678e-06
0.327566
1.22308e-06
0.326442
7.23138e-07
0.325806
2.8515e-07
0.327161
-2.45955e-07
0.331196
-4.5776e-07
0.341918
-1.202e-06
0.369869
-1.74634e-06
0.425685
-2.18539e-06
0.517628
-2.54581e-06
0.63193
-2.93988e-06
0.723194
-3.28337e-06
0.759287
-3.24115e-06
0.769272
-3.36944e-06
0.771492
-3.47054e-06
0.771528
-3.41549e-06
0.768689
-3.28437e-06
0.7613
-3.07733e-06
0.738943
-2.78705e-06
0.678528
-2.37763e-06
0.521919
-1.76766e-06
0.238529
-9.27368e-07
0.0337329
-2.32559e-07
0.000796756
-1.76664e-08
2.08213e-06
-2.57867e-10
4.37935e-10
-4.52194e-13
3.27516e-14
-4.44089e-16
-1.11022e-16
-4.996e-16
-2.22045e-16
-1.66533e-16
1.66533e-16
-3.33067e-16
0
-2.77556e-16
-2.77556e-16
-4.996e-16
0
-2.22045e-16
-1.66533e-16
-1.11022e-16
-1.11022e-16
0
-5.55112e-17
0
-1.11022e-16
-5.55112e-17
1.11022e-16
-2.77556e-16
1.11022e-16
-2.77556e-16
5.55112e-17
-4.44089e-16
-2.77556e-16
-7.21645e-16
-6.10623e-16
-5.55112e-16
-3.33067e-16
-4.44089e-16
2.77556e-16
-4.44089e-16
2.22045e-16
-6.10623e-16
2.22045e-16
-2.77556e-16
5.55112e-17
-4.44089e-16
0
-2.77556e-16
1.11022e-16
-4.44089e-16
1.66533e-16
-2.77556e-16
-1.11022e-16
-3.33067e-16
0
-2.22045e-16
1.11022e-16
-4.44089e-16
-1.66533e-16
-4.44089e-16
-5.55112e-17
-3.88578e-16
-1.11022e-16
-2.77556e-16
-2.22045e-16
-5.55112e-16
-2.77556e-16
-2.77556e-16
-1.66533e-16
-1.11022e-16
1.66533e-16
1.11022e-16
-3.33067e-16
-2.77556e-16
1.11022e-16
2.77556e-16
4.44089e-16
5.55112e-17
2.77556e-16
-1.11022e-16
-1.11022e-16
-3.88578e-16
-1.11022e-16
-7.21645e-16
-1.11022e-16
-6.10623e-16
-6.10623e-16
4.44089e-16
0
3.33067e-16
-2.22045e-16
2.22045e-16
-2.22045e-16
0
-1.11022e-16
0
1.11022e-16
-3.33067e-16
3.33067e-16
-2.22045e-16
3.33067e-16
3.33067e-16
6.66134e-16
-2.22045e-16
2.22045e-16
3.33067e-16
1.11022e-16
0
-1.11022e-16
0
0
-4.44089e-16
0
0
-2.22045e-16
0
-3.33067e-16
-3.33067e-16
-3.33067e-16
4.44089e-16
5.55112e-16
-1.11022e-16
-1.11022e-16
-2.22045e-16
2.22045e-16
3.33067e-16
5.55112e-16
-4.44089e-16
2.22045e-16
-2.22045e-16
1.11022e-16
-2.22045e-16
2.22045e-16
1.11022e-16
5.55112e-16
-5.55112e-16
2.22045e-16
0
8.88178e-16
3.33067e-16
8.88178e-16
2.22045e-16
6.66134e-16
0
1.11022e-16
-2.22045e-16
3.33067e-16
0
3.33067e-16
2.22045e-16
2.22045e-16
-4.44089e-16
0
4.44089e-16
3.33067e-16
1.11022e-16
-1.11022e-16
0
0
3.33067e-16
0
-1.11022e-16
-2.22045e-16
0
1.11022e-16
-3.33067e-16
0
-5.55112e-16
0
1.11022e-16
2.22045e-16
4.44089e-16
2.22045e-16
0
0
0
2.22045e-16
-1.11022e-16
3.33067e-16
-1.11022e-16