/*--------------------------------*- C++ -*----------------------------------*\
  =========                 |
  \\      /  F ield         | OpenFOAM: The Open Source CFD Toolbox
   \\    /   O peration     | Website:  https://openfoam.org
    \\  /    A nd           | Version:  13
     \\/     M anipulation  |
\*---------------------------------------------------------------------------*/
FoamFile
{
    format      ascii;
    class       volScalarField;
    location    "0.0004";
    object      Qdot;
}
// * * * * * * * * * * * * * * * * * * * * * * * * * * * * * * * * * * * * * //

dimensions      [1 -1 -3 0 0 0 0];

internalField   nonuniform List<scalar> 
33334
(
1.08739e+08
1.08739e+08
1.08739e+08
1.08739e+08
1.08739e+08
1.08739e+08
1.08739e+08
1.08739e+08
1.08739e+08
1.08739e+08
1.08739e+08
1.08739e+08
1.08739e+08
1.08739e+08
1.08739e+08
1.08739e+08
1.08739e+08
1.08739e+08
1.08739e+08
1.08739e+08
1.08739e+08
1.08739e+08
1.08739e+08
1.08739e+08
1.08739e+08
1.08739e+08
1.08739e+08
1.08739e+08
1.08739e+08
1.08739e+08
1.08739e+08
1.08739e+08
1.08739e+08
1.08739e+08
1.08739e+08
1.08739e+08
1.08739e+08
1.08739e+08
1.08739e+08
1.08739e+08
1.08739e+08
1.08739e+08
1.08739e+08
1.08739e+08
1.08739e+08
1.08739e+08
1.08739e+08
1.08739e+08
1.08739e+08
1.08739e+08
1.08739e+08
1.08739e+08
1.08739e+08
1.08739e+08
1.08739e+08
1.08739e+08
1.08739e+08
1.08739e+08
1.08739e+08
1.08739e+08
1.08739e+08
1.08739e+08
1.08739e+08
1.08739e+08
1.08739e+08
1.08739e+08
1.08739e+08
1.08739e+08
1.08739e+08
1.08736e+08
1.08654e+08
1.07956e+08
1.05394e+08
9.99537e+07
9.16712e+07
8.13895e+07
7.02092e+07
5.91068e+07
4.87713e+07
3.95942e+07
3.17325e+07
2.51887e+07
1.98798e+07
1.56871e+07
1.24858e+07
1.01562e+07
8.57874e+06
7.61987e+06
7.11819e+06
6.88409e+06
6.76617e+06
6.72182e+06
6.67634e+06
6.61219e+06
6.55347e+06
6.52248e+06
6.47848e+06
6.41492e+06
6.33439e+06
6.27956e+06
6.29105e+06
6.30211e+06
6.17366e+06
5.34759e+06
3.73409e+06
1.49653e+06
219299
7267.08
54.2365
0.368723
0.01616
0.00612845
0.00584801
0.00612596
0.0067909
0.00736509
0.00698061
0.00484635
0.00146459
8.08477e-05
9.94962e-07
1.32246e-07
1.11469e-07
1.11225e-07
1.11225e-07
1.11225e-07
1.11225e-07
1.11225e-07
1.11225e-07
1.11225e-07
1.11225e-07
1.11225e-07
1.11225e-07
1.11225e-07
1.11225e-07
1.11225e-07
1.11225e-07
1.11225e-07
1.11225e-07
1.11225e-07
1.11225e-07
1.11225e-07
1.11225e-07
1.11225e-07
1.11225e-07
1.11225e-07
1.11225e-07
1.11225e-07
1.11225e-07
1.11225e-07
1.11225e-07
1.11225e-07
1.11225e-07
1.11225e-07
1.11225e-07
1.11225e-07
1.11225e-07
1.11225e-07
1.11225e-07
1.11225e-07
1.11225e-07
1.11225e-07
1.11225e-07
1.11225e-07
1.11225e-07
1.11225e-07
1.08739e+08
1.08739e+08
1.08739e+08
1.08739e+08
1.08739e+08
1.08739e+08
1.08739e+08
1.08739e+08
1.08739e+08
1.08739e+08
1.08739e+08
1.08739e+08
1.08739e+08
1.08739e+08
1.08739e+08
1.08739e+08
1.08739e+08
1.08739e+08
1.08739e+08
1.08739e+08
1.08739e+08
1.08739e+08
1.08739e+08
1.08739e+08
1.08739e+08
1.08739e+08
1.08739e+08
1.08739e+08
1.08739e+08
1.08739e+08
1.08739e+08
1.08739e+08
1.08739e+08
1.08739e+08
1.08739e+08
1.08739e+08
1.08739e+08
1.08739e+08
1.08739e+08
1.08739e+08
1.08739e+08
1.08739e+08
1.08739e+08
1.08739e+08
1.08739e+08
1.08739e+08
1.08739e+08
1.08739e+08
1.08739e+08
1.08739e+08
1.08739e+08
1.08739e+08
1.08739e+08
1.08739e+08
1.08739e+08
1.08739e+08
1.08739e+08
1.08739e+08
1.08739e+08
1.08739e+08
1.08739e+08
1.08739e+08
1.08739e+08
1.08739e+08
1.08739e+08
1.08739e+08
1.08739e+08
1.08739e+08
1.08739e+08
1.08736e+08
1.08654e+08
1.07956e+08
1.05394e+08
9.99536e+07
9.16711e+07
8.13895e+07
7.02091e+07
5.91067e+07
4.87712e+07
3.95941e+07
3.17324e+07
2.51886e+07
1.98797e+07
1.5687e+07
1.24857e+07
1.01561e+07
8.57865e+06
7.61977e+06
7.11809e+06
6.88392e+06
6.76613e+06
6.72172e+06
6.67619e+06
6.61208e+06
6.55334e+06
6.52237e+06
6.4783e+06
6.41485e+06
6.33422e+06
6.27946e+06
6.29091e+06
6.30198e+06
6.17358e+06
5.34772e+06
3.73445e+06
1.49688e+06
219388
7271.17
54.2678
0.36886
0.016161
0.00612845
0.00584771
0.00612567
0.00679055
0.00736479
0.0069804
0.00484629
0.0014646
8.08504e-05
9.94991e-07
1.32247e-07
1.11469e-07
1.11225e-07
1.11225e-07
1.11225e-07
1.11225e-07
1.11225e-07
1.11225e-07
1.11225e-07
1.11225e-07
1.11225e-07
1.11225e-07
1.11225e-07
1.11225e-07
1.11225e-07
1.11225e-07
1.11225e-07
1.11225e-07
1.11225e-07
1.11225e-07
1.11225e-07
1.11225e-07
1.11225e-07
1.11225e-07
1.11225e-07
1.11225e-07
1.11225e-07
1.11225e-07
1.11225e-07
1.11225e-07
1.11225e-07
1.11225e-07
1.11225e-07
1.11225e-07
1.11225e-07
1.11225e-07
1.11225e-07
1.11225e-07
1.11225e-07
1.11225e-07
1.11225e-07
1.11225e-07
1.11225e-07
1.11225e-07
1.11225e-07
1.08739e+08
1.08739e+08
1.08739e+08
1.08739e+08
1.08739e+08
1.08739e+08
1.08739e+08
1.08739e+08
1.08739e+08
1.08739e+08
1.08739e+08
1.08739e+08
1.08739e+08
1.08739e+08
1.08739e+08
1.08739e+08
1.08739e+08
1.08739e+08
1.08739e+08
1.08739e+08
1.08739e+08
1.08739e+08
1.08739e+08
1.08739e+08
1.08739e+08
1.08739e+08
1.08739e+08
1.08739e+08
1.08739e+08
1.08739e+08
1.08739e+08
1.08739e+08
1.08739e+08
1.08739e+08
1.08739e+08
1.08739e+08
1.08739e+08
1.08739e+08
1.08739e+08
1.08739e+08
1.08739e+08
1.08739e+08
1.08739e+08
1.08739e+08
1.08739e+08
1.08739e+08
1.08739e+08
1.08739e+08
1.08739e+08
1.08739e+08
1.08739e+08
1.08739e+08
1.08739e+08
1.08739e+08
1.08739e+08
1.08739e+08
1.08739e+08
1.08739e+08
1.08739e+08
1.08739e+08
1.08739e+08
1.08739e+08
1.08739e+08
1.08739e+08
1.08739e+08
1.08739e+08
1.08739e+08
1.08739e+08
1.08739e+08
1.08736e+08
1.08654e+08
1.07956e+08
1.05394e+08
9.99536e+07
9.1671e+07
8.13894e+07
7.0209e+07
5.91066e+07
4.87711e+07
3.9594e+07
3.17323e+07
2.51885e+07
1.98796e+07
1.56869e+07
1.24856e+07
1.0156e+07
8.57856e+06
7.61968e+06
7.118e+06
6.88383e+06
6.76607e+06
6.72162e+06
6.67609e+06
6.61197e+06
6.5532e+06
6.52224e+06
6.47817e+06
6.41473e+06
6.33408e+06
6.2793e+06
6.29074e+06
6.30184e+06
6.17347e+06
5.34775e+06
3.73468e+06
1.49714e+06
219464
7275.05
54.3
0.368996
0.0161631
0.00612849
0.00584746
0.00612544
0.00679028
0.00736455
0.00698023
0.00484625
0.00146462
8.08526e-05
9.95016e-07
1.32247e-07
1.11469e-07
1.11225e-07
1.11225e-07
1.11225e-07
1.11225e-07
1.11225e-07
1.11225e-07
1.11225e-07
1.11225e-07
1.11225e-07
1.11225e-07
1.11225e-07
1.11225e-07
1.11225e-07
1.11225e-07
1.11225e-07
1.11225e-07
1.11225e-07
1.11225e-07
1.11225e-07
1.11225e-07
1.11225e-07
1.11225e-07
1.11225e-07
1.11225e-07
1.11225e-07
1.11225e-07
1.11225e-07
1.11225e-07
1.11225e-07
1.11225e-07
1.11225e-07
1.11225e-07
1.11225e-07
1.11225e-07
1.11225e-07
1.11225e-07
1.11225e-07
1.11225e-07
1.11225e-07
1.11225e-07
1.11225e-07
1.11225e-07
1.11225e-07
1.08739e+08
1.08739e+08
1.08739e+08
1.08739e+08
1.08739e+08
1.08739e+08
1.08739e+08
1.08739e+08
1.08739e+08
1.08739e+08
1.08739e+08
1.08739e+08
1.08739e+08
1.08739e+08
1.08739e+08
1.08739e+08
1.08739e+08
1.08739e+08
1.08739e+08
1.08739e+08
1.08739e+08
1.08739e+08
1.08739e+08
1.08739e+08
1.08739e+08
1.08739e+08
1.08739e+08
1.08739e+08
1.08739e+08
1.08739e+08
1.08739e+08
1.08739e+08
1.08739e+08
1.08739e+08
1.08739e+08
1.08739e+08
1.08739e+08
1.08739e+08
1.08739e+08
1.08739e+08
1.08739e+08
1.08739e+08
1.08739e+08
1.08739e+08
1.08739e+08
1.08739e+08
1.08739e+08
1.08739e+08
1.08739e+08
1.08739e+08
1.08739e+08
1.08739e+08
1.08739e+08
1.08739e+08
1.08739e+08
1.08739e+08
1.08739e+08
1.08739e+08
1.08739e+08
1.08739e+08
1.08739e+08
1.08739e+08
1.08739e+08
1.08739e+08
1.08739e+08
1.08739e+08
1.08739e+08
1.08739e+08
1.08739e+08
1.08736e+08
1.08654e+08
1.07956e+08
1.05394e+08
9.99535e+07
9.16709e+07
8.13893e+07
7.02089e+07
5.91065e+07
4.8771e+07
3.95939e+07
3.17322e+07
2.51885e+07
1.98796e+07
1.56868e+07
1.24856e+07
1.01559e+07
8.57851e+06
7.61963e+06
7.11795e+06
6.88379e+06
6.76604e+06
6.7216e+06
6.67604e+06
6.61193e+06
6.55315e+06
6.52217e+06
6.4781e+06
6.41467e+06
6.33402e+06
6.27923e+06
6.29066e+06
6.30175e+06
6.17341e+06
5.34777e+06
3.73478e+06
1.49724e+06
219494
7276.6
54.3131
0.369082
0.0161641
0.00612852
0.0058474
0.00612537
0.0067902
0.0073645
0.00698022
0.00484628
0.00146464
8.08548e-05
9.95039e-07
1.32248e-07
1.11469e-07
1.11225e-07
1.11225e-07
1.11225e-07
1.11225e-07
1.11225e-07
1.11225e-07
1.11225e-07
1.11225e-07
1.11225e-07
1.11225e-07
1.11225e-07
1.11225e-07
1.11225e-07
1.11225e-07
1.11225e-07
1.11225e-07
1.11225e-07
1.11225e-07
1.11225e-07
1.11225e-07
1.11225e-07
1.11225e-07
1.11225e-07
1.11225e-07
1.11225e-07
1.11225e-07
1.11225e-07
1.11225e-07
1.11225e-07
1.11225e-07
1.11225e-07
1.11225e-07
1.11225e-07
1.11225e-07
1.11225e-07
1.11225e-07
1.11225e-07
1.11225e-07
1.11225e-07
1.11225e-07
1.11225e-07
1.11225e-07
1.11225e-07
1.08739e+08
1.08739e+08
1.08739e+08
1.08739e+08
1.08739e+08
1.08739e+08
1.08739e+08
1.08739e+08
1.08739e+08
1.08739e+08
1.08739e+08
1.08739e+08
1.08739e+08
1.08739e+08
1.08739e+08
1.08739e+08
1.08739e+08
1.08739e+08
1.08739e+08
1.08739e+08
1.08739e+08
1.08739e+08
1.08739e+08
1.08739e+08
1.08739e+08
1.08739e+08
1.08739e+08
1.08739e+08
1.08739e+08
1.08739e+08
1.08739e+08
1.08739e+08
1.08739e+08
1.08739e+08
1.08739e+08
1.08739e+08
1.08739e+08
1.08739e+08
1.08739e+08
1.08739e+08
1.08739e+08
1.08739e+08
1.08739e+08
1.08739e+08
1.08739e+08
1.08739e+08
1.08739e+08
1.08739e+08
1.08739e+08
1.08739e+08
1.08739e+08
1.08739e+08
1.08739e+08
1.08739e+08
1.08739e+08
1.08739e+08
1.08739e+08
1.08739e+08
1.08739e+08
1.08739e+08
1.08739e+08
1.08739e+08
1.08739e+08
1.08739e+08
1.08739e+08
1.08739e+08
1.08739e+08
1.08739e+08
1.08739e+08
1.08736e+08
1.08654e+08
1.07956e+08
1.05394e+08
9.99535e+07
9.16709e+07
8.13892e+07
7.02089e+07
5.91064e+07
4.8771e+07
3.95939e+07
3.17322e+07
2.51884e+07
1.98795e+07
1.56868e+07
1.24855e+07
1.01559e+07
8.57848e+06
7.6196e+06
7.11792e+06
6.88377e+06
6.76602e+06
6.7216e+06
6.67604e+06
6.61193e+06
6.55315e+06
6.52216e+06
6.47809e+06
6.41465e+06
6.33402e+06
6.27921e+06
6.29064e+06
6.30173e+06
6.17339e+06
5.34777e+06
3.73479e+06
1.49726e+06
219498
7276.86
54.3156
0.369075
0.0161646
0.00612858
0.0058474
0.00612537
0.0067902
0.0073645
0.00698024
0.00484631
0.00146467
8.08569e-05
9.95061e-07
1.32248e-07
1.11469e-07
1.11225e-07
1.11225e-07
1.11225e-07
1.11225e-07
1.11225e-07
1.11225e-07
1.11225e-07
1.11225e-07
1.11225e-07
1.11225e-07
1.11225e-07
1.11225e-07
1.11225e-07
1.11225e-07
1.11225e-07
1.11225e-07
1.11225e-07
1.11225e-07
1.11225e-07
1.11225e-07
1.11225e-07
1.11225e-07
1.11225e-07
1.11225e-07
1.11225e-07
1.11225e-07
1.11225e-07
1.11225e-07
1.11225e-07
1.11225e-07
1.11225e-07
1.11225e-07
1.11225e-07
1.11225e-07
1.11225e-07
1.11225e-07
1.11225e-07
1.11225e-07
1.11225e-07
1.11225e-07
1.11225e-07
1.11225e-07
1.11225e-07
1.08739e+08
1.08739e+08
1.08739e+08
1.08739e+08
1.08739e+08
1.08739e+08
1.08739e+08
1.08739e+08
1.08739e+08
1.08739e+08
1.08739e+08
1.08739e+08
1.08739e+08
1.08739e+08
1.08739e+08
1.08739e+08
1.08739e+08
1.08739e+08
1.08739e+08
1.08739e+08
1.08739e+08
1.08739e+08
1.08739e+08
1.08739e+08
1.08739e+08
1.08739e+08
1.08739e+08
1.08739e+08
1.08739e+08
1.08739e+08
1.08739e+08
1.08739e+08
1.08739e+08
1.08739e+08
1.08739e+08
1.08739e+08
1.08739e+08
1.08739e+08
1.08739e+08
1.08739e+08
1.08739e+08
1.08739e+08
1.08739e+08
1.08739e+08
1.08739e+08
1.08739e+08
1.08739e+08
1.08739e+08
1.08739e+08
1.08739e+08
1.08739e+08
1.08739e+08
1.08739e+08
1.08739e+08
1.08739e+08
1.08739e+08
1.08739e+08
1.08739e+08
1.08739e+08
1.08739e+08
1.08739e+08
1.08739e+08
1.08739e+08
1.08739e+08
1.08739e+08
1.08739e+08
1.08739e+08
1.08739e+08
1.08739e+08
1.08736e+08
1.08654e+08
1.07956e+08
1.05394e+08
9.99534e+07
9.16708e+07
8.13891e+07
7.02088e+07
5.91064e+07
4.87709e+07
3.95938e+07
3.17321e+07
2.51883e+07
1.98795e+07
1.56868e+07
1.24855e+07
1.01559e+07
8.57845e+06
7.61958e+06
7.1179e+06
6.88375e+06
6.76601e+06
6.72159e+06
6.67604e+06
6.61193e+06
6.55316e+06
6.52216e+06
6.47809e+06
6.41465e+06
6.33402e+06
6.27922e+06
6.29065e+06
6.30173e+06
6.17339e+06
5.34776e+06
3.73478e+06
1.49725e+06
219497
7276.8
54.3154
0.369077
0.0161648
0.00612863
0.00584742
0.00612538
0.00679022
0.00736453
0.00698027
0.00484635
0.00146469
8.08588e-05
9.9508e-07
1.32248e-07
1.11469e-07
1.11225e-07
1.11225e-07
1.11225e-07
1.11225e-07
1.11225e-07
1.11225e-07
1.11225e-07
1.11225e-07
1.11225e-07
1.11225e-07
1.11225e-07
1.11225e-07
1.11225e-07
1.11225e-07
1.11225e-07
1.11225e-07
1.11225e-07
1.11225e-07
1.11225e-07
1.11225e-07
1.11225e-07
1.11225e-07
1.11225e-07
1.11225e-07
1.11225e-07
1.11225e-07
1.11225e-07
1.11225e-07
1.11225e-07
1.11225e-07
1.11225e-07
1.11225e-07
1.11225e-07
1.11225e-07
1.11225e-07
1.11225e-07
1.11225e-07
1.11225e-07
1.11225e-07
1.11225e-07
1.11225e-07
1.11225e-07
1.11225e-07
1.08739e+08
1.08739e+08
1.08739e+08
1.08739e+08
1.08739e+08
1.08739e+08
1.08739e+08
1.08739e+08
1.08739e+08
1.08739e+08
1.08739e+08
1.08739e+08
1.08739e+08
1.08739e+08
1.08739e+08
1.08739e+08
1.08739e+08
1.08739e+08
1.08739e+08
1.08739e+08
1.08739e+08
1.08739e+08
1.08739e+08
1.08739e+08
1.08739e+08
1.08739e+08
1.08739e+08
1.08739e+08
1.08739e+08
1.08739e+08
1.08739e+08
1.08739e+08
1.08739e+08
1.08739e+08
1.08739e+08
1.08739e+08
1.08739e+08
1.08739e+08
1.08739e+08
1.08739e+08
1.08739e+08
1.08739e+08
1.08739e+08
1.08739e+08
1.08739e+08
1.08739e+08
1.08739e+08
1.08739e+08
1.08739e+08
1.08739e+08
1.08739e+08
1.08739e+08
1.08739e+08
1.08739e+08
1.08739e+08
1.08739e+08
1.08739e+08
1.08739e+08
1.08739e+08
1.08739e+08
1.08739e+08
1.08739e+08
1.08739e+08
1.08739e+08
1.08739e+08
1.08739e+08
1.08739e+08
1.08739e+08
1.08739e+08
1.08736e+08
1.08654e+08
1.07956e+08
1.05394e+08
9.99534e+07
9.16708e+07
8.13891e+07
7.02087e+07
5.91063e+07
4.87708e+07
3.95937e+07
3.17321e+07
2.51883e+07
1.98794e+07
1.56867e+07
1.24855e+07
1.01558e+07
8.57842e+06
7.61955e+06
7.11788e+06
6.88374e+06
6.76599e+06
6.72159e+06
6.67604e+06
6.61193e+06
6.55316e+06
6.52217e+06
6.47809e+06
6.41465e+06
6.33402e+06
6.27922e+06
6.29065e+06
6.30174e+06
6.1734e+06
5.34776e+06
3.73477e+06
1.49724e+06
219493
7276.64
54.3145
0.369075
0.0161648
0.00612867
0.00584745
0.00612541
0.00679025
0.00736457
0.00698031
0.00484639
0.00146471
8.08605e-05
9.95096e-07
1.32249e-07
1.11469e-07
1.11225e-07
1.11225e-07
1.11225e-07
1.11225e-07
1.11225e-07
1.11225e-07
1.11225e-07
1.11225e-07
1.11225e-07
1.11225e-07
1.11225e-07
1.11225e-07
1.11225e-07
1.11225e-07
1.11225e-07
1.11225e-07
1.11225e-07
1.11225e-07
1.11225e-07
1.11225e-07
1.11225e-07
1.11225e-07
1.11225e-07
1.11225e-07
1.11225e-07
1.11225e-07
1.11225e-07
1.11225e-07
1.11225e-07
1.11225e-07
1.11225e-07
1.11225e-07
1.11225e-07
1.11225e-07
1.11225e-07
1.11225e-07
1.11225e-07
1.11225e-07
1.11225e-07
1.11225e-07
1.11225e-07
1.11225e-07
1.11225e-07
1.08739e+08
1.08739e+08
1.08739e+08
1.08739e+08
1.08739e+08
1.08739e+08
1.08739e+08
1.08739e+08
1.08739e+08
1.08739e+08
1.08739e+08
1.08739e+08
1.08739e+08
1.08739e+08
1.08739e+08
1.08739e+08
1.08739e+08
1.08739e+08
1.08739e+08
1.08739e+08
1.08739e+08
1.08739e+08
1.08739e+08
1.08739e+08
1.08739e+08
1.08739e+08
1.08739e+08
1.08739e+08
1.08739e+08
1.08739e+08
1.08739e+08
1.08739e+08
1.08739e+08
1.08739e+08
1.08739e+08
1.08739e+08
1.08739e+08
1.08739e+08
1.08739e+08
1.08739e+08
1.08739e+08
1.08739e+08
1.08739e+08
1.08739e+08
1.08739e+08
1.08739e+08
1.08739e+08
1.08739e+08
1.08739e+08
1.08739e+08
1.08739e+08
1.08739e+08
1.08739e+08
1.08739e+08
1.08739e+08
1.08739e+08
1.08739e+08
1.08739e+08
1.08739e+08
1.08739e+08
1.08739e+08
1.08739e+08
1.08739e+08
1.08739e+08
1.08739e+08
1.08739e+08
1.08739e+08
1.08739e+08
1.08739e+08
1.08736e+08
1.08654e+08
1.07956e+08
1.05394e+08
9.99534e+07
9.16708e+07
8.1389e+07
7.02087e+07
5.91062e+07
4.87708e+07
3.95937e+07
3.1732e+07
2.51883e+07
1.98794e+07
1.56867e+07
1.24854e+07
1.01558e+07
8.5784e+06
7.61953e+06
7.11786e+06
6.88372e+06
6.76598e+06
6.72158e+06
6.67604e+06
6.61193e+06
6.55316e+06
6.52217e+06
6.4781e+06
6.41465e+06
6.33403e+06
6.27923e+06
6.29066e+06
6.30175e+06
6.1734e+06
5.34776e+06
3.73476e+06
1.49722e+06
219489
7276.49
54.3135
0.369073
0.0161649
0.00612869
0.00584747
0.00612544
0.00679028
0.00736461
0.00698036
0.00484644
0.00146473
8.08619e-05
9.95109e-07
1.32249e-07
1.11469e-07
1.11225e-07
1.11225e-07
1.11225e-07
1.11225e-07
1.11225e-07
1.11225e-07
1.11225e-07
1.11225e-07
1.11225e-07
1.11225e-07
1.11225e-07
1.11225e-07
1.11225e-07
1.11225e-07
1.11225e-07
1.11225e-07
1.11225e-07
1.11225e-07
1.11225e-07
1.11225e-07
1.11225e-07
1.11225e-07
1.11225e-07
1.11225e-07
1.11225e-07
1.11225e-07
1.11225e-07
1.11225e-07
1.11225e-07
1.11225e-07
1.11225e-07
1.11225e-07
1.11225e-07
1.11225e-07
1.11225e-07
1.11225e-07
1.11225e-07
1.11225e-07
1.11225e-07
1.11225e-07
1.11225e-07
1.11225e-07
1.11225e-07
1.08739e+08
1.08739e+08
1.08739e+08
1.08739e+08
1.08739e+08
1.08739e+08
1.08739e+08
1.08739e+08
1.08739e+08
1.08739e+08
1.08739e+08
1.08739e+08
1.08739e+08
1.08739e+08
1.08739e+08
1.08739e+08
1.08739e+08
1.08739e+08
1.08739e+08
1.08739e+08
1.08739e+08
1.08739e+08
1.08739e+08
1.08739e+08
1.08739e+08
1.08739e+08
1.08739e+08
1.08739e+08
1.08739e+08
1.08739e+08
1.08739e+08
1.08739e+08
1.08739e+08
1.08739e+08
1.08739e+08
1.08739e+08
1.08739e+08
1.08739e+08
1.08739e+08
1.08739e+08
1.08739e+08
1.08739e+08
1.08739e+08
1.08739e+08
1.08739e+08
1.08739e+08
1.08739e+08
1.08739e+08
1.08739e+08
1.08739e+08
1.08739e+08
1.08739e+08
1.08739e+08
1.08739e+08
1.08739e+08
1.08739e+08
1.08739e+08
1.08739e+08
1.08739e+08
1.08739e+08
1.08739e+08
1.08739e+08
1.08739e+08
1.08739e+08
1.08739e+08
1.08739e+08
1.08739e+08
1.08739e+08
1.08739e+08
1.08736e+08
1.08654e+08
1.07956e+08
1.05394e+08
9.99534e+07
9.16707e+07
8.1389e+07
7.02086e+07
5.91062e+07
4.87707e+07
3.95936e+07
3.1732e+07
2.51882e+07
1.98794e+07
1.56867e+07
1.24854e+07
1.01558e+07
8.57837e+06
7.61951e+06
7.11784e+06
6.8837e+06
6.76596e+06
6.72157e+06
6.67603e+06
6.61192e+06
6.55317e+06
6.52218e+06
6.47811e+06
6.41465e+06
6.33403e+06
6.27923e+06
6.29067e+06
6.30176e+06
6.17341e+06
5.34776e+06
3.73475e+06
1.49722e+06
219487
7276.4
54.3129
0.369072
0.016165
0.00612871
0.0058475
0.00612546
0.00679032
0.00736465
0.00698041
0.00484648
0.00146475
8.08631e-05
9.95119e-07
1.32249e-07
1.11469e-07
1.11225e-07
1.11225e-07
1.11225e-07
1.11225e-07
1.11225e-07
1.11225e-07
1.11225e-07
1.11225e-07
1.11225e-07
1.11225e-07
1.11225e-07
1.11225e-07
1.11225e-07
1.11225e-07
1.11225e-07
1.11225e-07
1.11225e-07
1.11225e-07
1.11225e-07
1.11225e-07
1.11225e-07
1.11225e-07
1.11225e-07
1.11225e-07
1.11225e-07
1.11225e-07
1.11225e-07
1.11225e-07
1.11225e-07
1.11225e-07
1.11225e-07
1.11225e-07
1.11225e-07
1.11225e-07
1.11225e-07
1.11225e-07
1.11225e-07
1.11225e-07
1.11225e-07
1.11225e-07
1.11225e-07
1.11225e-07
1.11225e-07
1.08739e+08
1.08739e+08
1.08739e+08
1.08739e+08
1.08739e+08
1.08739e+08
1.08739e+08
1.08739e+08
1.08739e+08
1.08739e+08
1.08739e+08
1.08739e+08
1.08739e+08
1.08739e+08
1.08739e+08
1.08739e+08
1.08739e+08
1.08739e+08
1.08739e+08
1.08739e+08
1.08739e+08
1.08739e+08
1.08739e+08
1.08739e+08
1.08739e+08
1.08739e+08
1.08739e+08
1.08739e+08
1.08739e+08
1.08739e+08
1.08739e+08
1.08739e+08
1.08739e+08
1.08739e+08
1.08739e+08
1.08739e+08
1.08739e+08
1.08739e+08
1.08739e+08
1.08739e+08
1.08739e+08
1.08739e+08
1.08739e+08
1.08739e+08
1.08739e+08
1.08739e+08
1.08739e+08
1.08739e+08
1.08739e+08
1.08739e+08
1.08739e+08
1.08739e+08
1.08739e+08
1.08739e+08
1.08739e+08
1.08739e+08
1.08739e+08
1.08739e+08
1.08739e+08
1.08739e+08
1.08739e+08
1.08739e+08
1.08739e+08
1.08739e+08
1.08739e+08
1.08739e+08
1.08739e+08
1.08739e+08
1.08739e+08
1.08736e+08
1.08654e+08
1.07956e+08
1.05394e+08
9.99534e+07
9.16707e+07
8.1389e+07
7.02086e+07
5.91062e+07
4.87707e+07
3.95936e+07
3.17319e+07
2.51882e+07
1.98793e+07
1.56866e+07
1.24854e+07
1.01558e+07
8.57834e+06
7.61949e+06
7.11782e+06
6.88369e+06
6.76594e+06
6.72156e+06
6.67603e+06
6.61192e+06
6.55316e+06
6.52218e+06
6.47811e+06
6.41466e+06
6.33403e+06
6.27924e+06
6.29068e+06
6.30177e+06
6.17342e+06
5.34777e+06
3.73475e+06
1.49721e+06
219486
7276.35
54.3126
0.369072
0.016165
0.00612873
0.00584752
0.00612549
0.00679035
0.0073647
0.00698046
0.00484653
0.00146476
8.08641e-05
9.95125e-07
1.32249e-07
1.11469e-07
1.11225e-07
1.11225e-07
1.11225e-07
1.11225e-07
1.11225e-07
1.11225e-07
1.11225e-07
1.11225e-07
1.11225e-07
1.11225e-07
1.11225e-07
1.11225e-07
1.11225e-07
1.11225e-07
1.11225e-07
1.11225e-07
1.11225e-07
1.11225e-07
1.11225e-07
1.11225e-07
1.11225e-07
1.11225e-07
1.11225e-07
1.11225e-07
1.11225e-07
1.11225e-07
1.11225e-07
1.11225e-07
1.11225e-07
1.11225e-07
1.11225e-07
1.11225e-07
1.11225e-07
1.11225e-07
1.11225e-07
1.11225e-07
1.11225e-07
1.11225e-07
1.11225e-07
1.11225e-07
1.11225e-07
1.11225e-07
1.11225e-07
1.08739e+08
1.08739e+08
1.08739e+08
1.08739e+08
1.08739e+08
1.08739e+08
1.08739e+08
1.08739e+08
1.08739e+08
1.08739e+08
1.08739e+08
1.08739e+08
1.08739e+08
1.08739e+08
1.08739e+08
1.08739e+08
1.08739e+08
1.08739e+08
1.08739e+08
1.08739e+08
1.08739e+08
1.08739e+08
1.08739e+08
1.08739e+08
1.08739e+08
1.08739e+08
1.08739e+08
1.08739e+08
1.08739e+08
1.08739e+08
1.08739e+08
1.08739e+08
1.08739e+08
1.08739e+08
1.08739e+08
1.08739e+08
1.08739e+08
1.08739e+08
1.08739e+08
1.08739e+08
1.08739e+08
1.08739e+08
1.08739e+08
1.08739e+08
1.08739e+08
1.08739e+08
1.08739e+08
1.08739e+08
1.08739e+08
1.08739e+08
1.08739e+08
1.08739e+08
1.08739e+08
1.08739e+08
1.08739e+08
1.08739e+08
1.08739e+08
1.08739e+08
1.08739e+08
1.08739e+08
1.08739e+08
1.08739e+08
1.08739e+08
1.08739e+08
1.08739e+08
1.08739e+08
1.08739e+08
1.08739e+08
1.08739e+08
1.08736e+08
1.08654e+08
1.07956e+08
1.05394e+08
9.99534e+07
9.16707e+07
8.1389e+07
7.02086e+07
5.91061e+07
4.87707e+07
3.95936e+07
3.17319e+07
2.51881e+07
1.98793e+07
1.56866e+07
1.24853e+07
1.01557e+07
8.57832e+06
7.61946e+06
7.1178e+06
6.88367e+06
6.76592e+06
6.72155e+06
6.67602e+06
6.61191e+06
6.55316e+06
6.52218e+06
6.47811e+06
6.41466e+06
6.33404e+06
6.27924e+06
6.29068e+06
6.30178e+06
6.17343e+06
5.34777e+06
3.73475e+06
1.49721e+06
219486
7276.33
54.3124
0.369072
0.0161651
0.00612875
0.00584755
0.00612552
0.0067904
0.00736475
0.00698051
0.00484657
0.00146478
8.08647e-05
9.95129e-07
1.32249e-07
1.11469e-07
1.11225e-07
1.11225e-07
1.11225e-07
1.11225e-07
1.11225e-07
1.11225e-07
1.11225e-07
1.11225e-07
1.11225e-07
1.11225e-07
1.11225e-07
1.11225e-07
1.11225e-07
1.11225e-07
1.11225e-07
1.11225e-07
1.11225e-07
1.11225e-07
1.11225e-07
1.11225e-07
1.11225e-07
1.11225e-07
1.11225e-07
1.11225e-07
1.11225e-07
1.11225e-07
1.11225e-07
1.11225e-07
1.11225e-07
1.11225e-07
1.11225e-07
1.11225e-07
1.11225e-07
1.11225e-07
1.11225e-07
1.11225e-07
1.11225e-07
1.11225e-07
1.11225e-07
1.11225e-07
1.11225e-07
1.11225e-07
1.11225e-07
1.08739e+08
1.08739e+08
1.08739e+08
1.08739e+08
1.08739e+08
1.08739e+08
1.08739e+08
1.08739e+08
1.08739e+08
1.08739e+08
1.08739e+08
1.08739e+08
1.08739e+08
1.08739e+08
1.08739e+08
1.08739e+08
1.08739e+08
1.08739e+08
1.08739e+08
1.08739e+08
1.08739e+08
1.08739e+08
1.08739e+08
1.08739e+08
1.08739e+08
1.08739e+08
1.08739e+08
1.08739e+08
1.08739e+08
1.08739e+08
1.08739e+08
1.08739e+08
1.08739e+08
1.08739e+08
1.08739e+08
1.08739e+08
1.08739e+08
1.08739e+08
1.08739e+08
1.08739e+08
1.08739e+08
1.08739e+08
1.08739e+08
1.08739e+08
1.08739e+08
1.08739e+08
1.08739e+08
1.08739e+08
1.08739e+08
1.08739e+08
1.08739e+08
1.08739e+08
1.08739e+08
1.08739e+08
1.08739e+08
1.08739e+08
1.08739e+08
1.08739e+08
1.08739e+08
1.08739e+08
1.08739e+08
1.08739e+08
1.08739e+08
1.08739e+08
1.08739e+08
1.08739e+08
1.08739e+08
1.08739e+08
1.08739e+08
1.08736e+08
1.08654e+08
1.07956e+08
1.05394e+08
9.99534e+07
9.16707e+07
8.1389e+07
7.02086e+07
5.91061e+07
4.87706e+07
3.95935e+07
3.17319e+07
2.51881e+07
1.98793e+07
1.56866e+07
1.24853e+07
1.01557e+07
8.5783e+06
7.61944e+06
7.11778e+06
6.88365e+06
6.76591e+06
6.72154e+06
6.67601e+06
6.61191e+06
6.55316e+06
6.52218e+06
6.47812e+06
6.41467e+06
6.33404e+06
6.27925e+06
6.29068e+06
6.30178e+06
6.17343e+06
5.34777e+06
3.73475e+06
1.49721e+06
219485
7276.31
54.3124
0.369073
0.0161651
0.00612877
0.00584759
0.00612556
0.00679044
0.00736479
0.00698055
0.0048466
0.00146479
8.08651e-05
9.95131e-07
1.32249e-07
1.11469e-07
1.11225e-07
1.11225e-07
1.11225e-07
1.11225e-07
1.11225e-07
1.11225e-07
1.11225e-07
1.11225e-07
1.11225e-07
1.11225e-07
1.11225e-07
1.11225e-07
1.11225e-07
1.11225e-07
1.11225e-07
1.11225e-07
1.11225e-07
1.11225e-07
1.11225e-07
1.11225e-07
1.11225e-07
1.11225e-07
1.11225e-07
1.11225e-07
1.11225e-07
1.11225e-07
1.11225e-07
1.11225e-07
1.11225e-07
1.11225e-07
1.11225e-07
1.11225e-07
1.11225e-07
1.11225e-07
1.11225e-07
1.11225e-07
1.11225e-07
1.11225e-07
1.11225e-07
1.11225e-07
1.11225e-07
1.11225e-07
1.11225e-07
1.08739e+08
1.08739e+08
1.08739e+08
1.08739e+08
1.08739e+08
1.08739e+08
1.08739e+08
1.08739e+08
1.08739e+08
1.08739e+08
1.08739e+08
1.08739e+08
1.08739e+08
1.08739e+08
1.08739e+08
1.08739e+08
1.08739e+08
1.08739e+08
1.08739e+08
1.08739e+08
1.08739e+08
1.08739e+08
1.08739e+08
1.08739e+08
1.08739e+08
1.08739e+08
1.08739e+08
1.08739e+08
1.08739e+08
1.08739e+08
1.08739e+08
1.08739e+08
1.08739e+08
1.08739e+08
1.08739e+08
1.08739e+08
1.08739e+08
1.08739e+08
1.08739e+08
1.08739e+08
1.08739e+08
1.08739e+08
1.08739e+08
1.08739e+08
1.08739e+08
1.08739e+08
1.08739e+08
1.08739e+08
1.08739e+08
1.08739e+08
1.08739e+08
1.08739e+08
1.08739e+08
1.08739e+08
1.08739e+08
1.08739e+08
1.08739e+08
1.08739e+08
1.08739e+08
1.08739e+08
1.08739e+08
1.08739e+08
1.08739e+08
1.08739e+08
1.08739e+08
1.08739e+08
1.08739e+08
1.08739e+08
1.08739e+08
1.08736e+08
1.08654e+08
1.07956e+08
1.05394e+08
9.99534e+07
9.16707e+07
8.1389e+07
7.02086e+07
5.91061e+07
4.87706e+07
3.95935e+07
3.17319e+07
2.51881e+07
1.98792e+07
1.56866e+07
1.24853e+07
1.01557e+07
8.57828e+06
7.61942e+06
7.11776e+06
6.88363e+06
6.76589e+06
6.72152e+06
6.676e+06
6.6119e+06
6.55315e+06
6.52218e+06
6.47812e+06
6.41467e+06
6.33405e+06
6.27925e+06
6.29069e+06
6.30179e+06
6.17344e+06
5.34778e+06
3.73476e+06
1.49721e+06
219485
7276.3
54.3123
0.369074
0.0161652
0.0061288
0.00584762
0.00612559
0.00679048
0.00736484
0.00698059
0.00484662
0.00146479
8.08653e-05
9.95132e-07
1.32249e-07
1.11469e-07
1.11225e-07
1.11225e-07
1.11225e-07
1.11225e-07
1.11225e-07
1.11225e-07
1.11225e-07
1.11225e-07
1.11225e-07
1.11225e-07
1.11225e-07
1.11225e-07
1.11225e-07
1.11225e-07
1.11225e-07
1.11225e-07
1.11225e-07
1.11225e-07
1.11225e-07
1.11225e-07
1.11225e-07
1.11225e-07
1.11225e-07
1.11225e-07
1.11225e-07
1.11225e-07
1.11225e-07
1.11225e-07
1.11225e-07
1.11225e-07
1.11225e-07
1.11225e-07
1.11225e-07
1.11225e-07
1.11225e-07
1.11225e-07
1.11225e-07
1.11225e-07
1.11225e-07
1.11225e-07
1.11225e-07
1.11225e-07
1.11225e-07
1.08739e+08
1.08739e+08
1.08739e+08
1.08739e+08
1.08739e+08
1.08739e+08
1.08739e+08
1.08739e+08
1.08739e+08
1.08739e+08
1.08739e+08
1.08739e+08
1.08739e+08
1.08739e+08
1.08739e+08
1.08739e+08
1.08739e+08
1.08739e+08
1.08739e+08
1.08739e+08
1.08739e+08
1.08739e+08
1.08739e+08
1.08739e+08
1.08739e+08
1.08739e+08
1.08739e+08
1.08739e+08
1.08739e+08
1.08739e+08
1.08739e+08
1.08739e+08
1.08739e+08
1.08739e+08
1.08739e+08
1.08739e+08
1.08739e+08
1.08739e+08
1.08739e+08
1.08739e+08
1.08739e+08
1.08739e+08
1.08739e+08
1.08739e+08
1.08739e+08
1.08739e+08
1.08739e+08
1.08739e+08
1.08739e+08
1.08739e+08
1.08739e+08
1.08739e+08
1.08739e+08
1.08739e+08
1.08739e+08
1.08739e+08
1.08739e+08
1.08739e+08
1.08739e+08
1.08739e+08
1.08739e+08
1.08739e+08
1.08739e+08
1.08739e+08
1.08739e+08
1.08739e+08
1.08739e+08
1.08739e+08
1.08739e+08
1.08736e+08
1.08654e+08
1.07956e+08
1.05394e+08
9.99534e+07
9.16707e+07
8.1389e+07
7.02086e+07
5.91061e+07
4.87706e+07
3.95935e+07
3.17318e+07
2.51881e+07
1.98792e+07
1.56865e+07
1.24853e+07
1.01557e+07
8.57826e+06
7.6194e+06
7.11774e+06
6.88362e+06
6.76587e+06
6.72151e+06
6.67599e+06
6.61189e+06
6.55315e+06
6.52218e+06
6.47811e+06
6.41467e+06
6.33405e+06
6.27925e+06
6.29069e+06
6.30179e+06
6.17344e+06
5.34778e+06
3.73476e+06
1.49721e+06
219485
7276.3
54.3124
0.369075
0.0161653
0.00612883
0.00584765
0.00612563
0.00679051
0.00736487
0.00698062
0.00484664
0.0014648
8.08654e-05
9.95132e-07
1.32249e-07
1.11469e-07
1.11225e-07
1.11225e-07
1.11225e-07
1.11225e-07
1.11225e-07
1.11225e-07
1.11225e-07
1.11225e-07
1.11225e-07
1.11225e-07
1.11225e-07
1.11225e-07
1.11225e-07
1.11225e-07
1.11225e-07
1.11225e-07
1.11225e-07
1.11225e-07
1.11225e-07
1.11225e-07
1.11225e-07
1.11225e-07
1.11225e-07
1.11225e-07
1.11225e-07
1.11225e-07
1.11225e-07
1.11225e-07
1.11225e-07
1.11225e-07
1.11225e-07
1.11225e-07
1.11225e-07
1.11225e-07
1.11225e-07
1.11225e-07
1.11225e-07
1.11225e-07
1.11225e-07
1.11225e-07
1.11225e-07
1.11225e-07
1.11225e-07
1.08739e+08
1.08739e+08
1.08739e+08
1.08739e+08
1.08739e+08
1.08739e+08
1.08739e+08
1.08739e+08
1.08739e+08
1.08739e+08
1.08739e+08
1.08739e+08
1.08739e+08
1.08739e+08
1.08739e+08
1.08739e+08
1.08739e+08
1.08739e+08
1.08739e+08
1.08739e+08
1.08739e+08
1.08739e+08
1.08739e+08
1.08739e+08
1.08739e+08
1.08739e+08
1.08739e+08
1.08739e+08
1.08739e+08
1.08739e+08
1.08739e+08
1.08739e+08
1.08739e+08
1.08739e+08
1.08739e+08
1.08739e+08
1.08739e+08
1.08739e+08
1.08739e+08
1.08739e+08
1.08739e+08
1.08739e+08
1.08739e+08
1.08739e+08
1.08739e+08
1.08739e+08
1.08739e+08
1.08739e+08
1.08739e+08
1.08739e+08
1.08739e+08
1.08739e+08
1.08739e+08
1.08739e+08
1.08739e+08
1.08739e+08
1.08739e+08
1.08739e+08
1.08739e+08
1.08739e+08
1.08739e+08
1.08739e+08
1.08739e+08
1.08739e+08
1.08739e+08
1.08739e+08
1.08739e+08
1.08739e+08
1.08739e+08
1.08736e+08
1.08654e+08
1.07956e+08
1.05394e+08
9.99534e+07
9.16707e+07
8.1389e+07
7.02086e+07
5.91061e+07
4.87706e+07
3.95935e+07
3.17318e+07
2.51881e+07
1.98792e+07
1.56865e+07
1.24853e+07
1.01557e+07
8.57825e+06
7.61939e+06
7.11773e+06
6.8836e+06
6.76585e+06
6.72149e+06
6.67597e+06
6.61188e+06
6.55314e+06
6.52217e+06
6.47811e+06
6.41466e+06
6.33405e+06
6.27925e+06
6.29069e+06
6.3018e+06
6.17345e+06
5.34779e+06
3.73476e+06
1.49721e+06
219485
7276.3
54.3124
0.369075
0.0161653
0.00612885
0.00584768
0.00612565
0.00679053
0.00736489
0.00698064
0.00484664
0.0014648
8.08654e-05
9.95132e-07
1.32249e-07
1.11469e-07
1.11225e-07
1.11225e-07
1.11225e-07
1.11225e-07
1.11225e-07
1.11225e-07
1.11225e-07
1.11225e-07
1.11225e-07
1.11225e-07
1.11225e-07
1.11225e-07
1.11225e-07
1.11225e-07
1.11225e-07
1.11225e-07
1.11225e-07
1.11225e-07
1.11225e-07
1.11225e-07
1.11225e-07
1.11225e-07
1.11225e-07
1.11225e-07
1.11225e-07
1.11225e-07
1.11225e-07
1.11225e-07
1.11225e-07
1.11225e-07
1.11225e-07
1.11225e-07
1.11225e-07
1.11225e-07
1.11225e-07