/*--------------------------------*- C++ -*----------------------------------*\
  =========                 |
  \\      /  F ield         | OpenFOAM: The Open Source CFD Toolbox
   \\    /   O peration     | Website:  https://openfoam.org
    \\  /    A nd           | Version:  13
     \\/     M anipulation  |
\*---------------------------------------------------------------------------*/
FoamFile
{
    format      ascii;
    class       volVectorField;
    location    "0.0004";
    object      U;
}
// * * * * * * * * * * * * * * * * * * * * * * * * * * * * * * * * * * * * * //

dimensions      [0 1 -1 0 0 0 0];

internalField   nonuniform List<vector> 
33334
(
(-4.48791e-14 -1.03296e-14 0)
(3.89839e-15 4.77776e-14 0)
(5.54932e-14 9.61732e-15 0)
(-3.21364e-14 1.57121e-15 0)
(-4.87172e-14 1.89096e-14 0)
(-2.05854e-15 2.1916e-14 0)
(1.44722e-13 -2.83541e-14 0)
(4.60637e-14 -8.7999e-14 0)
(-5.06715e-14 -7.81059e-16 0)
(-3.39003e-14 4.95248e-14 0)
(-2.59526e-14 1.30157e-13 0)
(-1.24629e-13 1.22265e-14 0)
(-7.62724e-14 1.10884e-14 0)
(-3.69367e-14 -5.00253e-14 0)
(-4.61512e-14 -1.1697e-13 0)
(-9.39362e-14 3.19272e-15 0)
(3.02007e-14 3.55187e-14 0)
(-6.05392e-14 4.8681e-14 0)
(6.79832e-15 7.75855e-15 0)
(4.69456e-14 -3.59897e-14 0)
(-3.75215e-15 -3.00011e-14 0)
(-7.56215e-14 -4.12471e-14 0)
(3.7167e-14 -3.31468e-14 0)
(-2.06683e-14 4.12872e-14 0)
(-1.18895e-13 3.46048e-14 0)
(-5.62155e-14 -5.22868e-14 0)
(-2.95116e-14 -4.54687e-14 0)
(-5.10441e-14 3.8849e-15 0)
(8.74961e-15 6.41663e-14 0)
(2.39125e-14 4.11756e-14 0)
(1.72097e-13 7.14376e-14 0)
(1.07861e-13 -4.709e-15 0)
(3.2214e-14 1.74035e-14 0)
(-2.02776e-14 1.58976e-14 0)
(6.4027e-14 7.8403e-14 0)
(1.59634e-13 1.21637e-13 0)
(7.00809e-14 3.10947e-14 0)
(4.63119e-14 4.87995e-15 0)
(1.1263e-13 -3.99286e-14 0)
(1.45784e-13 4.43843e-15 0)
(1.85941e-14 6.23175e-15 0)
(-7.4051e-14 6.07944e-14 0)
(6.52728e-14 1.03142e-14 0)
(2.17404e-14 -3.87262e-14 0)
(-9.73683e-14 -2.09436e-14 0)
(-1.8324e-14 -1.67674e-14 0)
(3.74691e-14 2.94003e-14 0)
(-3.15584e-14 1.22953e-14 0)
(-2.77433e-15 -5.08007e-14 0)
(1.032e-13 -2.97163e-14 0)
(4.2114e-14 1.87491e-14 0)
(9.34675e-14 5.809e-15 0)
(-3.75262e-14 -6.01823e-14 0)
(-1.28472e-13 1.90527e-14 0)
(2.6088e-15 2.59956e-14 0)
(1.62019e-13 -3.5474e-14 0)
(5.99807e-14 -1.5692e-13 0)
(7.18132e-14 -1.14548e-13 0)
(-3.86078e-14 -1.26891e-13 0)
(-1.24296e-13 -6.76207e-14 0)
(-5.67531e-14 -4.13373e-14 0)
(8.94204e-15 2.78962e-14 0)
(-2.16649e-14 -8.39548e-15 0)
(1.23253e-14 6.08485e-14 0)
(-6.7665e-14 2.49586e-14 0)
(-2.26003e-13 9.35557e-14 0)
(1.44837e-11 8.2872e-14 0)
(6.64955e-08 2.60701e-11 0)
(4.35108e-05 4.01783e-09 0)
(0.00437618 1.44199e-07 0)
(0.100592 1.70695e-06 0)
(0.794474 9.18664e-06 0)
(3.10026 2.94079e-05 0)
(7.83879 6.73862e-05 0)
(15.2316 0.00012418 0)
(25.083 0.00019814 0)
(37.0189 0.000286884 0)
(50.6301 0.000388259 0)
(65.5395 0.000500614 0)
(81.4242 0.000622876 0)
(98.0058 0.000754615 0)
(115.02 0.000896134 0)
(132.163 0.00104669 0)
(149.005 0.00119585 0)
(164.887 0.00133245 0)
(178.862 0.00144403 0)
(189.841 0.00153149 0)
(197.067 0.00157922 0)
(200.715 0.00180917 0)
(201.877 0.00181788 0)
(202.039 0.0018908 0)
(201.488 0.00201065 0)
(201.005 0.00191141 0)
(200.757 0.0024023 0)
(200.334 0.00232224 0)
(199.559 0.00220343 0)
(198.96 0.00220404 0)
(198.842 0.00237918 0)
(199.168 0.00256595 0)
(199.404 0.0025506 0)
(199.157 0.00292569 0)
(198.236 0.00295554 0)
(197.738 0.00211193 0)
(199.365 0.00130751 0)
(198.291 -0.00346957 0)
(197.944 -0.00773543 0)
(198.342 -0.00959128 0)
(199.074 -0.00814161 0)
(199.758 -0.00483108 0)
(199.486 -0.00196149 0)
(197.899 -0.0014375 0)
(197.042 -0.00158109 0)
(197.891 -0.001308 0)
(198.057 -0.00139596 0)
(198.161 -0.00148585 0)
(197.728 -0.00151292 0)
(195.314 -0.00143774 0)
(188.093 -0.00128404 0)
(167.24 -0.0010512 0)
(116.331 -0.000702106 0)
(41.1767 -0.000289631 0)
(3.9316 -4.98297e-05 0)
(0.0655056 -2.51826e-06 0)
(0.000133473 -2.55091e-08 0)
(2.69825e-08 -3.5205e-11 0)
(6.63001e-12 -2.7264e-13 0)
(-4.30356e-14 -2.69095e-13 0)
(-1.89456e-13 -3.03116e-13 0)
(-9.87127e-15 -2.07093e-13 0)
(1.14981e-13 -1.58949e-13 0)
(-3.99381e-14 -1.76293e-13 0)
(-1.06252e-13 -1.76664e-13 0)
(5.43873e-14 -1.4394e-13 0)
(1.79409e-13 -1.08428e-13 0)
(5.63385e-14 -1.14586e-13 0)
(-1.12546e-13 -1.38647e-13 0)
(2.00423e-14 -9.0008e-14 0)
(2.08302e-13 -1.04594e-13 0)
(6.76096e-14 -1.54986e-13 0)
(-1.03541e-13 -1.76242e-13 0)
(-6.42428e-14 -2.36631e-13 0)
(-1.70329e-14 -2.47662e-13 0)
(-1.26878e-13 -2.00931e-13 0)
(-7.45939e-14 -9.27676e-14 0)
(3.21412e-14 -1.01872e-13 0)
(1.05579e-13 -3.15794e-14 0)
(5.66109e-14 -1.454e-13 0)
(-1.59425e-13 -1.36885e-13 0)
(-2.42612e-13 -1.52127e-13 0)
(-1.11938e-13 -1.04366e-13 0)
(1.21065e-14 -5.30387e-14 0)
(-4.97209e-14 -1.60474e-13 0)
(-1.64693e-13 -1.53222e-13 0)
(-2.20591e-14 -1.19771e-13 0)
(-1.66444e-14 -1.1594e-13 0)
(-1.35588e-13 -1.24889e-13 0)
(-1.00506e-13 -3.69115e-14 0)
(7.87127e-14 -6.14179e-15 0)
(9.10388e-14 -1.41226e-13 0)
(-1.29173e-13 -2.17704e-13 0)
(-1.85886e-14 -1.50511e-13 0)
(4.11887e-14 -1.79459e-13 0)
(8.55366e-14 -5.09632e-14 0)
(1.19194e-13 -1.2848e-13 0)
(-1.93089e-14 -1.12882e-13 0)
(7.64596e-14 -1.8264e-13 0)
(5.38181e-14 -3.53927e-14 0)
(-2.37859e-14 -5.28818e-14 0)
(-6.72133e-15 -3.86623e-14 0)
(3.97151e-15 -4.77048e-15 0)
(3.07452e-14 -3.90055e-15 0)
(3.08698e-14 3.91328e-14 0)
(9.77809e-14 5.05492e-14 0)
(8.53331e-14 3.30084e-16 0)
(-5.65955e-14 4.47224e-14 0)
(-7.94503e-15 7.00269e-14 0)
(-5.94719e-14 5.00335e-14 0)
(-1.34e-13 8.62566e-14 0)
(-2.80605e-14 7.43962e-14 0)
(-4.53298e-14 6.76888e-14 0)
(-5.92313e-14 -2.04567e-14 0)
(-6.67275e-14 7.29223e-14 0)
(-1.85663e-14 4.92473e-14 0)
(2.02569e-15 9.76943e-14 0)
(-4.75473e-14 1.38446e-13 0)
(9.35912e-14 -1.26248e-14 0)
(-8.06958e-15 -1.13159e-14 0)
(-1.3657e-13 2.41633e-14 0)
(-7.92975e-15 -1.32955e-14 0)
(-2.60608e-14 -1.1293e-15 0)
(-7.84711e-14 -1.39989e-14 0)
(-6.7987e-14 -6.84045e-14 0)
(-7.27859e-15 -4.90507e-14 0)
(2.34833e-15 -1.87363e-14 0)
(2.3838e-14 2.42637e-14 0)
(1.24586e-13 1.10745e-13 0)
(1.17622e-13 1.19139e-13 0)
(7.87062e-14 4.54864e-14 0)
(3.21743e-14 6.41782e-14 0)
(4.63493e-14 4.81179e-14 0)
(9.20079e-14 8.42909e-14 0)
(8.73795e-14 8.07648e-14 0)
(4.94348e-14 -2.2291e-14 0)
(-2.18844e-14 5.96681e-14 0)
(9.30049e-14 6.62566e-15 0)
(1.84329e-13 -1.97784e-14 0)
(2.86378e-14 -3.29093e-14 0)
(-5.74017e-14 2.18154e-15 0)
(2.41354e-14 2.08613e-14 0)
(4.82096e-14 -5.01863e-14 0)
(-3.45167e-14 3.25169e-14 0)
(-9.62744e-14 -5.39092e-14 0)
(8.70836e-15 2.77349e-15 0)
(-4.7634e-14 -6.10847e-14 0)
(-2.26965e-15 9.9565e-15 0)
(1.70293e-13 -7.26896e-15 0)
(1.63453e-13 7.54475e-14 0)
(-2.98836e-14 2.87235e-14 0)
(-7.86611e-14 -5.95059e-14 0)
(4.0438e-14 -5.07719e-14 0)
(4.12766e-14 7.55858e-14 0)
(5.2682e-14 -4.9497e-14 0)
(7.17241e-14 -1.51425e-13 0)
(-1.34401e-14 -1.39591e-13 0)
(-6.33028e-14 -5.20371e-14 0)
(-9.01598e-14 6.37758e-15 0)
(-2.30049e-16 -5.18346e-16 0)
(3.21417e-14 7.50109e-14 0)
(1.48778e-14 5.62939e-14 0)
(-9.61726e-15 1.59566e-13 0)
(-8.53552e-14 6.54488e-14 0)
(-2.37583e-14 1.00636e-13 0)
(1.42477e-11 6.92777e-14 0)
(6.64983e-08 7.28762e-13 0)
(4.35125e-05 4.57613e-10 0)
(0.00437633 4.59361e-08 0)
(0.100595 1.08276e-06 0)
(0.794494 8.56504e-06 0)
(3.10033 3.34405e-05 0)
(7.83897 8.48606e-05 0)
(15.232 0.000164717 0)
(25.0836 0.000269206 0)
(37.02 0.000392931 0)
(50.6317 0.000531215 0)
(65.5419 0.000680564 0)
(81.4275 0.000838507 0)
(98.0102 0.00100347 0)
(115.026 0.00117492 0)
(132.171 0.00135698 0)
(149.014 0.00156684 0)
(164.898 0.00180583 0)
(178.875 0.00207343 0)
(189.856 0.00236776 0)
(197.085 0.00264043 0)
(200.736 0.00298714 0)
(201.9 0.00332235 0)
(202.066 0.00273023 0)
(201.518 0.00308745 0)
(201.037 0.00308379 0)
(200.792 0.00342896 0)
(200.373 0.00325073 0)
(199.601 0.00299866 0)
(199.005 0.00311646 0)
(198.891 0.00262512 0)
(199.218 0.00259346 0)
(199.458 0.00218638 0)
(199.212 0.00227587 0)
(198.293 0.0014876 0)
(197.796 0.000235498 0)
(199.421 -0.000790004 0)
(198.345 -0.00292646 0)
(197.99 -0.00479907 0)
(198.379 -0.00581345 0)
(199.103 -0.00597872 0)
(199.781 -0.00508372 0)
(199.504 -0.00331896 0)
(197.915 -0.00280953 0)
(197.058 -0.00193505 0)
(197.905 -0.00106114 0)
(198.069 -0.00133083 0)
(198.171 -0.00147251 0)
(197.737 -0.00156738 0)
(195.321 -0.00159081 0)
(188.098 -0.00157859 0)
(167.243 -0.00146203 0)
(116.333 -0.00107342 0)
(41.1775 -0.000374509 0)
(3.93172 -3.48852e-05 0)
(0.065508 -5.60274e-07 0)
(0.000133479 -1.20175e-09 0)
(2.69837e-08 -4.98561e-13 0)
(6.60869e-12 -2.34905e-13 0)
(-7.05311e-14 -1.83335e-13 0)
(-8.15248e-14 -2.00112e-13 0)
(4.06406e-14 -1.36388e-13 0)
(3.2918e-14 -1.88284e-13 0)
(-1.03622e-13 -2.12966e-13 0)
(-1.13721e-13 -2.52147e-13 0)
(3.98444e-14 -2.13228e-13 0)
(1.05322e-13 -3.13721e-13 0)
(-1.74998e-15 -4.03132e-13 0)
(-3.89322e-14 -3.43603e-13 0)
(7.57453e-14 -1.97563e-13 0)
(1.93207e-13 -2.52588e-13 0)
(4.58785e-14 -2.41943e-13 0)
(-1.87387e-13 -2.41031e-13 0)
(-1.46109e-13 -3.17639e-13 0)
(1.94426e-14 -2.89279e-13 0)
(-4.20952e-14 -2.23818e-13 0)
(-9.55864e-14 -1.86106e-13 0)
(4.54436e-14 -1.77237e-13 0)
(6.69665e-14 -1.20693e-13 0)
(-3.66238e-14 -2.48976e-13 0)
(-1.7383e-13 -2.26086e-13 0)
(-2.18448e-13 -2.32999e-13 0)
(-4.03683e-14 -1.6753e-13 0)
(-6.15486e-14 -1.49417e-13 0)
(-1.31036e-13 -1.90236e-13 0)
(-8.18358e-14 -1.13436e-13 0)
(3.60389e-14 -7.61502e-14 0)
(2.36389e-15 -1.48097e-13 0)
(-1.14575e-13 -1.1298e-13 0)
(-2.97333e-14 -9.2016e-14 0)
(4.75452e-14 -6.80778e-14 0)
(-1.47834e-14 -2.01857e-13 0)
(-1.14004e-13 -2.55689e-13 0)
(-2.0494e-14 -2.0105e-13 0)
(1.19455e-13 -2.91161e-13 0)
(1.26538e-13 -2.24335e-13 0)
(7.56952e-14 -2.47786e-13 0)
(-1.80128e-14 -2.11788e-13 0)
(-7.07038e-14 -2.40324e-13 0)
(-6.77645e-14 -1.91503e-14 0)
(5.08243e-14 -6.6248e-14 0)
(5.06065e-14 2.83561e-15 0)
(2.90601e-14 -1.70033e-14 0)
(5.96145e-14 -6.90053e-14 0)
(-1.44228e-14 -5.24478e-14 0)
(3.47047e-14 -5.92685e-15 0)
(2.57493e-14 -1.04057e-13 0)
(3.97209e-14 -1.35473e-13 0)
(7.50495e-16 -3.62389e-14 0)
(-3.44768e-14 -2.42808e-14 0)
(-7.60009e-14 2.62648e-14 0)
(-6.4123e-14 9.10753e-15 0)
(-2.98777e-14 8.18584e-14 0)
(-5.19002e-14 8.74021e-14 0)
(-1.18712e-13 8.24469e-14 0)
(2.39576e-14 7.05256e-14 0)
(7.01302e-14 1.13866e-13 0)
(-4.12618e-14 1.06141e-14 0)
(-2.52743e-14 1.08905e-13 0)
(-6.54023e-14 -1.983e-14 0)
(-9.39034e-14 -1.0207e-14 0)
(-7.95308e-15 -4.62321e-14 0)
(-3.05314e-15 7.11337e-15 0)
(-9.4566e-14 2.9135e-14 0)
(-4.35548e-14 3.44263e-14 0)
(-3.16522e-14 1.90454e-14 0)
(-1.22666e-14 4.3803e-15 0)
(1.04223e-13 8.90428e-14 0)
(1.33615e-13 7.87459e-14 0)
(2.41624e-14 4.26361e-14 0)
(7.08659e-14 -3.36749e-14 0)
(-2.38747e-14 -2.48229e-14 0)
(2.74457e-14 -3.808e-14 0)
(1.65468e-13 1.14116e-14 0)
(5.87025e-14 -1.82431e-14 0)
(7.53239e-14 -8.9638e-14 0)
(4.95291e-14 -1.00662e-14 0)
(7.6576e-14 9.52237e-14 0)
(1.33028e-13 6.03817e-14 0)
(1.56798e-14 -1.57655e-14 0)
(1.69499e-14 -1.30174e-14 0)
(-4.30273e-14 3.57254e-14 0)
(2.29299e-14 -6.50643e-14 0)
(-4.52129e-14 -6.54387e-14 0)
(-4.46144e-14 -1.52827e-14 0)
(-3.87233e-14 1.45456e-14 0)
(-3.24425e-14 1.13342e-14 0)
(6.38889e-14 7.16311e-14 0)
(1.47317e-13 3.00512e-14 0)
(1.21272e-13 -2.01045e-14 0)
(-6.31855e-15 -7.25581e-14 0)
(-5.20415e-14 -3.09226e-14 0)
(-3.39646e-14 -2.35317e-14 0)
(7.5701e-15 -9.68637e-14 0)
(9.02398e-15 -1.2375e-13 0)
(6.06092e-14 -1.85664e-13 0)
(4.25613e-14 -1.73625e-13 0)
(-2.05912e-14 -1.24809e-13 0)
(-4.30278e-15 -1.87192e-13 0)
(8.82364e-14 -6.59435e-14 0)
(1.42764e-14 -7.21488e-14 0)
(-2.68613e-14 -4.40843e-14 0)
(-8.81699e-14 -6.25772e-15 0)
(-4.41561e-14 -8.55173e-14 0)
(3.63874e-14 -7.33102e-14 0)
(1.42311e-11 -8.97131e-14 0)
(6.65015e-08 7.33399e-13 0)
(4.35141e-05 4.02198e-10 0)
(0.00437644 3.75386e-08 0)
(0.100597 7.92946e-07 0)
(0.794502 5.90204e-06 0)
(3.10036 2.26488e-05 0)
(7.83901 5.82407e-05 0)
(15.2321 0.000116694 0)
(25.0837 0.000198199 0)
(37.0201 0.000300194 0)
(50.6318 0.000419001 0)
(65.542 0.000551109 0)
(81.4276 0.000693813 0)
(98.0103 0.000845427 0)
(115.026 0.00100564 0)
(132.171 0.00117466 0)
(149.014 0.00135377 0)
(164.898 0.0015515 0)
(178.875 0.00177184 0)
(189.856 0.00202131 0)
(197.085 0.00227187 0)
(200.736 0.00263045 0)
(201.9 0.00272895 0)
(202.066 0.00293386 0)
(201.518 0.00278135 0)
(201.037 0.00265174 0)
(200.792 0.00292996 0)
(200.373 0.00249097 0)
(199.601 0.00257255 0)
(199.004 0.0024996 0)
(198.89 0.00222168 0)
(199.218 0.00193872 0)
(199.457 0.00173 0)
(199.212 0.00140436 0)
(198.293 0.00102513 0)
(197.796 0.000209168 0)
(199.421 -0.000352777 0)
(198.345 -0.00203132 0)
(197.992 -0.00320914 0)
(198.382 -0.00398637 0)
(199.106 -0.00458343 0)
(199.784 -0.00440773 0)
(199.507 -0.00364873 0)
(197.916 -0.00309485 0)
(197.058 -0.00193341 0)
(197.905 -0.00146292 0)
(198.069 -0.00144533 0)
(198.171 -0.00148612 0)
(197.736 -0.00150245 0)
(195.321 -0.00147403 0)
(188.098 -0.00137355 0)
(167.243 -0.00113543 0)
(116.333 -0.000708497 0)
(41.1779 -0.000259851 0)
(3.93179 -2.73575e-05 0)
(0.0655102 -5.11844e-07 0)
(0.000133486 -1.14387e-09 0)
(2.69855e-08 -3.63007e-13 0)
(6.6709e-12 -1.47988e-13 0)
(-5.42372e-14 -9.27177e-14 0)
(-8.29972e-14 -6.33533e-14 0)
(-8.81416e-15 -1.24534e-13 0)
(-1.38869e-14 -3.56293e-13 0)
(-1.22623e-13 -3.45227e-13 0)
(-1.64656e-13 -3.55303e-13 0)
(-7.5951e-15 -3.41852e-13 0)
(-3.7685e-15 -3.46814e-13 0)
(-3.64882e-15 -3.73547e-13 0)
(9.19657e-14 -3.21944e-13 0)
(1.30764e-13 -2.56811e-13 0)
(1.68909e-13 -3.42016e-13 0)
(1.03974e-13 -3.55592e-13 0)
(-1.60055e-13 -3.86235e-13 0)
(-1.04571e-13 -2.36393e-13 0)
(1.43397e-14 -2.70192e-13 0)
(-3.23511e-14 -2.75613e-13 0)
(-3.00745e-14 -1.91641e-13 0)
(8.36066e-14 -1.84212e-13 0)
(-8.50344e-16 -2.2515e-13 0)
(-8.98388e-14 -2.57476e-13 0)
(-1.74632e-13 -3.11918e-13 0)
(-1.77147e-13 -1.54177e-13 0)
(-4.36407e-14 -1.47948e-13 0)
(2.50101e-15 -1.8372e-13 0)
(-3.98632e-14 -1.4093e-13 0)
(-6.69555e-14 -3.45997e-14 0)
(-2.12322e-14 3.78302e-14 0)
(-1.17226e-14 -5.49116e-14 0)
(-1.3326e-13 -1.87662e-14 0)
(-8.44357e-14 -7.37736e-14 0)
(3.40537e-15 -1.08522e-13 0)
(-6.295e-15 -1.46784e-13 0)
(-6.88113e-14 -1.81372e-13 0)
(-5.39312e-14 -2.01141e-13 0)
(4.17621e-14 -2.40085e-13 0)
(1.26112e-13 -3.10734e-13 0)
(1.08076e-13 -2.71468e-13 0)
(-4.84553e-14 -2.91553e-13 0)
(2.36604e-14 -2.18874e-13 0)
(-9.00673e-14 5.05384e-14 0)
(1.17184e-13 6.48184e-15 0)
(6.9265e-15 -4.44057e-14 0)
(-1.39918e-14 -6.0951e-14 0)
(2.13997e-14 -9.9482e-14 0)
(-4.27206e-14 -1.52531e-13 0)
(6.56246e-14 -1.42173e-13 0)
(-1.39862e-14 -8.4073e-14 0)
(3.49284e-14 -1.49328e-13 0)
(8.94634e-14 -1.92819e-13 0)
(2.72679e-15 -7.26624e-14 0)
(-1.01214e-13 -6.25307e-14 0)
(-2.70548e-14 -5.56064e-14 0)
(2.79108e-14 -3.34047e-14 0)
(2.18233e-14 -8.24518e-15 0)
(-4.37196e-14 5.48282e-14 0)
(-3.46265e-14 8.88484e-14 0)
(-4.8274e-15 -2.87203e-15 0)
(-8.60057e-14 9.14615e-15 0)
(-1.01431e-13 -3.47811e-18 0)
(-1.67499e-13 -9.25902e-14 0)
(-1.89699e-14 -3.15562e-14 0)
(-1.09983e-14 -1.82322e-13 0)
(4.62966e-14 -6.29551e-14 0)
(-9.55879e-14 -7.33919e-14 0)
(-7.68499e-14 -5.97494e-14 0)
(2.77958e-15 9.78964e-15 0)
(3.58234e-14 2.83396e-14 0)
(1.01904e-13 -7.22682e-15 0)
(3.85536e-14 -5.0546e-14 0)
(2.38061e-14 -8.0057e-14 0)
(8.15801e-14 -4.19341e-14 0)
(-6.61047e-15 -1.28422e-13 0)
(1.91671e-14 -3.94583e-14 0)
(1.21494e-13 -1.01734e-13 0)
(7.72932e-14 -1.27156e-13 0)
(8.7173e-14 -6.18601e-14 0)
(1.32843e-13 -5.14232e-14 0)
(1.011e-13 9.25716e-15 0)
(3.53542e-14 1.56168e-14 0)
(-2.93805e-14 -3.16019e-14 0)
(-2.73713e-14 -1.39848e-13 0)
(-1.90617e-14 -1.084e-13 0)
(-2.11895e-15 3.23239e-14 0)
(1.57478e-15 -4.56566e-14 0)
(2.16515e-14 4.84209e-14 0)
(4.01461e-14 3.02958e-15 0)
(-7.00313e-14 6.53872e-14 0)
(5.38553e-15 -3.07243e-14 0)
(5.61644e-14 -4.15603e-14 0)
(3.38725e-14 -1.09016e-13 0)
(-1.21866e-14 -1.86888e-13 0)
(-2.7861e-14 -9.52828e-14 0)
(1.90311e-14 -4.32094e-14 0)
(1.66641e-14 -8.92628e-14 0)
(-5.96247e-14 -4.55306e-14 0)
(-4.51967e-14 -1.49256e-13 0)
(2.77331e-14 -1.37549e-13 0)
(4.93611e-14 -2.69687e-13 0)
(-2.1405e-14 -1.96661e-13 0)
(8.63504e-14 -2.24507e-13 0)
(3.88519e-14 -1.99962e-13 0)
(4.0588e-14 -2.02678e-13 0)
(3.1595e-14 -1.61379e-13 0)
(-1.17473e-13 -1.29907e-13 0)
(-4.11057e-14 -1.8108e-13 0)
(1.4463e-11 -1.16898e-13 0)
(6.65043e-08 6.25106e-13 0)
(4.35153e-05 2.64955e-10 0)
(0.00437652 2.55961e-08 0)
(0.100598 5.63902e-07 0)
(0.79451 4.36909e-06 0)
(3.10038 1.73986e-05 0)
(7.83905 4.62218e-05 0)
(15.2321 9.50985e-05 0)
(25.0838 0.000164886 0)
(37.0202 0.000253841 0)
(50.6319 0.00035916 0)
(65.5421 0.000478155 0)
(81.4277 0.000608827 0)
(98.0104 0.000750064 0)
(115.026 0.000901571 0)
(132.171 0.00106377 0)
(149.015 0.00123684 0)
(164.898 0.00142695 0)
(178.876 0.00164049 0)
(189.856 0.00188875 0)
(197.086 0.00212848 0)
(200.736 0.0024294 0)
(201.9 0.0024001 0)
(202.066 0.00275292 0)
(201.518 0.00263892 0)
(201.037 0.0024684 0)
(200.792 0.00262992 0)
(200.372 0.00218873 0)
(199.601 0.0022136 0)
(199.004 0.00219313 0)
(198.89 0.00196569 0)
(199.217 0.00171476 0)
(199.457 0.00143553 0)
(199.212 0.000982861 0)
(198.292 0.000636631 0)
(197.795 4.15192e-05 0)
(199.42 -0.000420254 0)
(198.345 -0.00149232 0)
(197.992 -0.00266055 0)
(198.382 -0.00340059 0)
(199.106 -0.00378099 0)
(199.784 -0.00358944 0)
(199.507 -0.00324379 0)
(197.916 -0.00253399 0)
(197.059 -0.00176269 0)
(197.905 -0.00146906 0)
(198.069 -0.00143392 0)
(198.171 -0.00141179 0)
(197.736 -0.00136591 0)
(195.32 -0.00129509 0)
(188.098 -0.00119987 0)
(167.243 -0.00103555 0)
(116.333 -0.00069781 0)
(41.1783 -0.000246932 0)
(3.93187 -2.46071e-05 0)
(0.0655122 -4.40033e-07 0)
(0.000133492 -9.53852e-10 0)
(2.6987e-08 -3.21284e-13 0)
(6.61456e-12 -1.22046e-13 0)
(-5.807e-14 -1.74768e-13 0)
(-1.27214e-13 -1.51634e-13 0)
(-1.43601e-13 -2.02527e-13 0)
(-8.1179e-14 -2.64528e-13 0)
(-7.02414e-14 -2.9948e-13 0)
(-1.34149e-13 -2.68213e-13 0)
(1.46069e-14 -2.57381e-13 0)
(-1.4037e-14 -2.63715e-13 0)
(-5.83828e-15 -2.18413e-13 0)
(6.34618e-14 -2.41223e-13 0)
(8.62308e-14 -2.23137e-13 0)
(1.14015e-13 -2.19734e-13 0)
(6.19179e-14 -2.62148e-13 0)
(-3.31867e-14 -3.14657e-13 0)
(-6.273e-14 -2.69313e-13 0)
(-4.50046e-14 -2.67827e-13 0)
(2.61373e-14 -2.7058e-13 0)
(1.97432e-14 -1.76017e-13 0)
(3.20199e-14 -2.34913e-13 0)
(-3.71441e-14 -3.26372e-13 0)
(-1.29644e-13 -2.58695e-13 0)
(-1.01012e-13 -2.67466e-13 0)
(-7.38698e-14 -1.99898e-13 0)
(-1.94327e-14 -1.59331e-13 0)
(-2.5961e-14 -1.59083e-13 0)
(1.30102e-15 -1.73177e-13 0)
(5.25202e-14 -1.51823e-13 0)
(2.11393e-14 -8.7612e-14 0)
(-6.46059e-14 -1.21172e-13 0)
(-1.28688e-13 -1.3348e-13 0)
(-1.0555e-13 -1.0063e-13 0)
(-8.05299e-14 -1.1405e-13 0)
(-9.97388e-14 -1.2434e-13 0)
(-1.10871e-13 -1.79429e-13 0)
(-2.34295e-14 -1.41929e-13 0)
(7.71808e-14 -1.15268e-13 0)
(1.37359e-13 -1.28409e-13 0)
(8.04711e-14 -9.7173e-14 0)
(-2.48803e-14 -8.38072e-14 0)
(1.42228e-15 -8.77901e-14 0)
(-2.26857e-14 3.0876e-15 0)
(-1.86798e-14 5.10804e-15 0)
(-1.44905e-14 -7.03999e-14 0)
(-1.98517e-14 -7.72649e-14 0)
(-9.86543e-15 -1.20536e-13 0)
(2.85758e-14 -7.92332e-15 0)
(-3.85871e-14 -4.23264e-14 0)
(5.68737e-14 -8.26842e-14 0)
(-4.18602e-14 -6.46467e-14 0)
(1.53412e-13 -6.75697e-14 0)
(2.78005e-15 -1.49544e-14 0)
(-9.10709e-14 -1.77849e-14 0)
(-3.3846e-14 5.57947e-14 0)
(4.9288e-15 -2.09904e-15 0)
(3.56021e-14 -7.96925e-14 0)
(-3.23923e-14 -6.39449e-14 0)
(1.61284e-14 -1.14972e-13 0)
(-1.01842e-14 -1.1971e-13 0)
(-7.53706e-14 -1.34506e-13 0)
(-1.01177e-13 -9.58978e-14 0)
(-1.39101e-13 1.28931e-14 0)
(-5.74669e-14 -4.57544e-14 0)
(-3.12296e-14 -4.95617e-15 0)
(-6.33091e-15 -9.55481e-14 0)
(-1.20251e-13 -1.59933e-13 0)
(2.56418e-15 -1.09164e-13 0)
(3.97535e-14 -6.75172e-14 0)
(3.94328e-14 -7.95122e-14 0)
(-6.7456e-15 -1.6944e-14 0)
(5.21372e-14 -7.09703e-15 0)
(1.03198e-13 -4.69354e-14 0)
(3.40077e-14 1.50041e-14 0)
(-2.14914e-14 -8.71415e-14 0)
(2.24909e-14 -3.87889e-14 0)
(7.18731e-14 -1.03736e-13 0)
(1.39164e-13 -9.65594e-14 0)
(5.94269e-14 -7.51448e-14 0)
(1.86517e-13 -8.18075e-14 0)
(8.62311e-14 -1.96596e-14 0)
(2.07299e-14 -9.1614e-14 0)
(-7.27194e-14 -1.89424e-13 0)
(-9.47224e-14 -1.10876e-13 0)
(2.4109e-14 -1.11097e-13 0)
(2.98314e-14 -4.96497e-14 0)
(3.05625e-14 -1.08119e-13 0)
(-1.14287e-14 -9.38473e-14 0)
(-6.22547e-15 -9.8321e-14 0)
(-6.25223e-14 -1.41404e-13 0)
(3.17947e-16 -1.34329e-13 0)
(1.10875e-13 -1.33467e-13 0)
(-2.14026e-15 -8.70553e-14 0)
(-3.30758e-15 -1.11391e-13 0)
(-8.26607e-15 -6.47691e-14 0)
(-2.73996e-14 -3.8711e-14 0)
(-2.50373e-14 -7.65106e-14 0)
(5.14943e-15 -6.81366e-14 0)
(-7.57812e-14 -4.54568e-14 0)
(4.41906e-14 -4.34324e-14 0)
(-1.90643e-14 -7.59972e-14 0)
(2.1089e-14 -5.19062e-14 0)
(6.20322e-14 -6.3838e-14 0)
(-3.75897e-14 -1.48296e-13 0)
(7.1184e-14 -1.31326e-13 0)
(-3.97365e-14 -2.03333e-13 0)
(-3.11522e-14 -1.81082e-13 0)
(-2.41429e-14 -1.71378e-13 0)
(1.44015e-11 -2.37543e-13 0)
(6.65063e-08 3.07111e-13 0)
(4.35161e-05 1.74247e-10 0)
(0.00437658 1.73467e-08 0)
(0.100599 3.94289e-07 0)
(0.794516 3.145e-06 0)
(3.10039 1.2855e-05 0)
(7.83908 3.49524e-05 0)
(15.2322 7.34921e-05 0)
(25.0838 0.000130173 0)
(37.0203 0.000204599 0)
(50.632 0.000295122 0)
(65.5422 0.000399708 0)
(81.4278 0.000516608 0)
(98.0106 0.000644772 0)
(115.026 0.000783983 0)
(132.171 0.000934736 0)
(149.015 0.00109788 0)
(164.899 0.00127686 0)
(178.876 0.00147493 0)
(189.857 0.0017036 0)
(197.086 0.00191524 0)
(200.736 0.00218013 0)
(201.9 0.00225271 0)
(202.066 0.0024906 0)
(201.518 0.00245665 0)
(201.037 0.00235727 0)
(200.792 0.00234873 0)
(200.372 0.00203929 0)
(199.601 0.00196988 0)
(199.004 0.00192422 0)
(198.89 0.00165192 0)
(199.217 0.0014847 0)
(199.456 0.00121004 0)
(199.211 0.00073162 0)
(198.291 0.00034987 0)
(197.794 -0.000103929 0)
(199.42 -0.000394707 0)
(198.344 -0.00148322 0)
(197.992 -0.00197778 0)
(198.382 -0.00241388 0)
(199.106 -0.00259897 0)
(199.785 -0.00251068 0)
(199.507 -0.00239556 0)
(197.916 -0.0020703 0)
(197.059 -0.00160817 0)
(197.905 -0.0013642 0)
(198.069 -0.00131987 0)
(198.171 -0.00126625 0)
(197.736 -0.00121294 0)
(195.321 -0.00116407 0)
(188.098 -0.00109279 0)
(167.243 -0.00093712 0)
(116.334 -0.000629645 0)
(41.1787 -0.000221502 0)
(3.93194 -2.18389e-05 0)
(0.065514 -3.85161e-07 0)
(0.000133497 -8.21687e-10 0)
(2.69883e-08 -3.26391e-13 0)
(6.56967e-12 -2.23852e-13 0)
(-8.77162e-14 -1.85511e-13 0)
(-1.68728e-13 -2.53887e-13 0)
(-8.68589e-14 -2.39388e-13 0)
(-7.6829e-14 -1.13203e-13 0)
(-8.2248e-14 -1.82676e-13 0)
(-1.07578e-13 -6.89873e-14 0)
(-3.52181e-14 -1.05451e-13 0)
(2.68577e-14 -1.44131e-13 0)
(-2.92913e-15 -7.14813e-14 0)
(5.75002e-14 -8.5553e-14 0)
(1.48734e-13 -9.05067e-14 0)
(1.55762e-13 -5.56258e-14 0)
(4.3576e-14 -1.01589e-13 0)
(-7.74045e-14 -8.34206e-14 0)
(-9.46911e-14 -1.84534e-13 0)
(-2.45506e-14 -2.01367e-13 0)
(4.00028e-14 -2.38312e-13 0)
(2.62416e-14 -2.61897e-13 0)
(-1.51493e-14 -2.09234e-13 0)
(-5.22581e-14 -2.38955e-13 0)
(-2.9056e-14 -1.98497e-13 0)
(-7.82175e-14 -8.97719e-14 0)
(-8.23677e-14 -1.09782e-13 0)
(1.36054e-14 -5.65724e-14 0)
(-3.94378e-14 -8.37235e-14 0)
(-3.86686e-14 -5.94861e-14 0)
(2.22244e-14 -5.11721e-14 0)
(-1.85958e-14 -1.10631e-13 0)
(-5.7178e-14 -1.04819e-13 0)
(-1.411e-13 -9.11959e-14 0)
(-1.23528e-13 -1.68621e-13 0)
(-2.25929e-14 -1.17126e-13 0)
(-5.79485e-14 -6.40452e-14 0)
(-5.42005e-14 -3.99543e-14 0)
(4.12396e-14 1.85602e-14 0)
(1.07566e-13 6.05965e-14 0)
(1.44762e-13 7.58354e-14 0)
(1.04664e-13 7.26559e-14 0)
(-3.87509e-15 8.10273e-14 0)
(-1.77785e-14 2.77445e-14 0)
(3.33781e-14 -1.13439e-13 0)
(-2.949e-14 -1.67484e-14 0)
(1.33263e-14 -6.71685e-14 0)
(-7.04232e-14 -5.54163e-14 0)
(-4.75925e-14 1.79719e-14 0)
(7.40696e-14 2.6291e-14 0)
(2.73764e-14 -5.35688e-15 0)
(3.49538e-14 -2.06898e-15 0)
(2.18625e-14 4.31532e-14 0)
(8.84626e-14 -2.14471e-15 0)
(-1.12497e-14 -6.61616e-14 0)
(-1.03154e-13 -7.81329e-14 0)
(-1.16025e-14 -3.80527e-14 0)
(2.16192e-14 3.04997e-14 0)
(-4.08332e-14 -6.7294e-14 0)
(-6.22095e-14 -4.40022e-14 0)
(-6.64421e-14 -2.2531e-14 0)
(-5.50362e-14 -1.01091e-13 0)
(-7.15535e-15 -1.08441e-13 0)
(5.45031e-15 -6.29863e-14 0)
(-2.69125e-14 4.03936e-14 0)
(-9.76497e-14 -8.17566e-14 0)
(-3.56006e-14 1.68158e-14 0)
(-1.3551e-13 1.56486e-14 0)
(-3.24204e-14 1.61938e-14 0)
(-3.58306e-14 -3.94248e-14 0)
(3.28731e-15 -2.32692e-14 0)
(7.73182e-14 1.87222e-14 0)
(4.55377e-14 -1.078e-14 0)
(2.09708e-14 4.08158e-14 0)
(8.71982e-14 1.0337e-13 0)
(2.19884e-14 -2.5501e-14 0)
(-2.78687e-14 -8.88572e-14 0)
(6.43027e-14 -3.91572e-14 0)
(4.22412e-14 -5.69168e-14 0)
(1.32623e-13 -2.18978e-14 0)
(4.45272e-14 -6.00018e-14 0)
(1.29547e-13 -3.93566e-14 0)
(7.64519e-14 -1.51338e-13 0)
(-5.37326e-15 -7.73749e-14 0)
(-8.16955e-14 -7.44961e-14 0)
(7.70985e-15 -8.31384e-14 0)
(2.11434e-14 -3.19379e-14 0)
(-6.10305e-14 -8.6378e-14 0)
(-2.99582e-14 -8.25268e-14 0)
(5.81886e-14 -1.0908e-13 0)
(-6.47668e-14 -8.48484e-14 0)
(-2.13012e-14 -1.09773e-13 0)
(5.94064e-14 -1.97972e-14 0)
(6.81808e-14 -4.30703e-14 0)
(-7.99358e-15 -4.7766e-14 0)
(-3.72833e-15 -7.50944e-15 0)
(3.11403e-14 -1.3841e-15 0)
(-2.61564e-14 -3.33216e-16 0)
(-6.26638e-14 3.90171e-14 0)
(-6.7898e-14 -7.97126e-14 0)
(-4.80195e-14 -8.50783e-14 0)
(6.29314e-14 -1.03922e-13 0)
(3.99084e-14 -8.4839e-14 0)
(8.10299e-15 -6.57476e-14 0)
(-2.45116e-14 -9.9144e-14 0)
(-1.44046e-14 -1.12126e-13 0)
(-1.99453e-15 -1.24393e-13 0)
(-5.31407e-14 -1.38642e-13 0)
(-1.21885e-13 -1.82546e-13 0)
(-6.70914e-14 -2.05391e-13 0)
(1.44829e-11 -1.57892e-13 0)
(6.65075e-08 4.55137e-14 0)
(4.35166e-05 1.03006e-10 0)
(0.00437662 1.0675e-08 0)
(0.1006 2.53378e-07 0)
(0.79452 2.11605e-06 0)
(3.10041 9.04434e-06 0)
(7.83911 2.5603e-05 0)
(15.2322 5.57543e-05 0)
(25.0839 0.000101763 0)
(37.0203 0.000164057 0)
(50.6321 0.000241715 0)
(65.5423 0.00033321 0)
(81.4279 0.000437093 0)
(98.0107 0.000552491 0)
(115.027 0.000679365 0)
(132.171 0.000818529 0)
(149.015 0.000971443 0)
(164.899 0.00114046 0)
(178.876 0.00132542 0)
(189.857 0.00153566 0)
(197.086 0.00172252 0)
(200.736 0.00195188 0)
(201.9 0.00206921 0)
(202.066 0.00223017 0)
(201.518 0.00224961 0)
(201.037 0.0022272 0)
(200.792 0.00212734 0)
(200.372 0.00188147 0)
(199.601 0.00178257 0)
(199.004 0.00174038 0)
(198.89 0.00142164 0)
(199.217 0.00128155 0)
(199.456 0.00104715 0)
(199.211 0.000613656 0)
(198.291 0.000262492 0)
(197.794 -0.000173485 0)
(199.419 -0.000366582 0)
(198.344 -0.00117446 0)
(197.991 -0.00174306 0)
(198.381 -0.00204808 0)
(199.106 -0.00206013 0)
(199.784 -0.00197293 0)
(199.507 -0.00186087 0)
(197.916 -0.00160943 0)
(197.059 -0.00137179 0)
(197.905 -0.00126003 0)
(198.069 -0.00122002 0)
(198.171 -0.00117446 0)
(197.736 -0.0011267 0)
(195.321 -0.00107282 0)
(188.098 -0.000989906 0)
(167.243 -0.000835566 0)
(116.334 -0.000549233 0)
(41.179 -0.000188972 0)
(3.932 -1.82672e-05 0)
(0.0655155 -3.16948e-07 0)
(0.000133501 -6.66906e-10 0)
(2.69893e-08 -2.4014e-13 0)
(6.67253e-12 -4.7432e-14 0)
(-1.10243e-13 -1.51773e-13 0)
(-1.66476e-13 -1.18663e-13 0)
(-5.2148e-14 -7.13593e-14 0)
(-8.60563e-14 -2.71365e-14 0)
(-9.53099e-14 -4.63569e-14 0)
(-5.47701e-14 2.46055e-14 0)
(-6.8731e-14 6.41816e-15 0)
(5.65366e-14 -2.42406e-14 0)
(7.06016e-14 1.6357e-14 0)
(4.78306e-14 4.00975e-14 0)
(1.06535e-13 -2.11389e-14 0)
(1.48739e-13 -5.75582e-14 0)
(2.62091e-14 -9.00213e-14 0)
(-1.47648e-13 -3.5518e-14 0)
(-1.98296e-13 -8.57641e-14 0)
(-5.56217e-14 -1.35215e-13 0)
(1.0602e-14 -1.96248e-13 0)
(8.65487e-14 -2.10117e-13 0)
(5.24901e-14 -1.46859e-13 0)
(-2.06025e-14 -6.31351e-14 0)
(2.42216e-14 -4.10277e-14 0)
(-2.69321e-14 2.24052e-14 0)
(-6.02431e-14 6.42174e-14 0)
(-3.19025e-14 5.87754e-14 0)
(-2.44681e-14 3.6665e-15 0)
(6.89612e-14 1.05496e-13 0)
(2.26755e-14 1.0783e-13 0)
(-6.49983e-14 4.27678e-14 0)
(-5.32279e-14 -2.51282e-14 0)
(-1.73737e-13 -6.69548e-14 0)
(-1.27409e-13 -4.6195e-14 0)
(4.68253e-14 -2.58192e-15 0)
(-7.59427e-15 1.41783e-14 0)
(-5.57104e-15 6.42504e-14 0)
(8.90179e-14 8.37583e-14 0)
(1.19832e-13 1.27682e-13 0)
(1.48456e-13 1.55824e-13 0)
(8.2884e-14 1.05396e-13 0)
(-5.18189e-14 8.36416e-14 0)
(-4.75696e-14 9.7767e-14 0)
(1.68949e-13 -9.03567e-14 0)
(6.85825e-15 -9.81644e-14 0)
(-1.50814e-14 -8.98151e-15 0)
(-5.1811e-14 -4.85254e-14 0)
(6.8324e-14 -4.3204e-14 0)
(3.42554e-14 2.98969e-14 0)
(-2.49223e-14 1.46508e-14 0)
(5.19277e-14 -1.40769e-14 0)
(-1.53684e-16 4.83159e-14 0)
(1.3281e-14 -5.4827e-14 0)
(4.47808e-14 -7.28252e-14 0)
(-5.91848e-14 -2.40045e-14 0)
(-4.57166e-15 1.17726e-14 0)
(-2.36579e-14 -4.30751e-14 0)
(-1.89542e-14 2.10305e-14 0)
(-1.25743e-13 -7.22164e-14 0)
(-5.61201e-15 -7.67654e-14 0)
(-5.29425e-14 -4.91839e-16 0)
(1.28513e-14 2.10132e-14 0)
(1.27561e-13 6.62678e-14 0)
(-1.34423e-13 7.26738e-14 0)
(-1.31306e-13 5.77606e-14 0)
(-2.83568e-14 3.44369e-14 0)
(-6.40384e-14 2.55949e-15 0)
(-1.24763e-13 7.54987e-14 0)
(-4.39317e-14 1.65705e-14 0)
(4.62812e-14 5.36771e-14 0)
(8.95255e-14 4.60869e-14 0)
(5.51701e-14 1.02831e-14 0)
(3.87984e-14 -1.3024e-14 0)
(2.96036e-14 -2.13595e-14 0)
(-3.81578e-15 3.9802e-15 0)
(2.34396e-14 1.42007e-14 0)
(4.74682e-14 1.10753e-14 0)
(6.00351e-14 1.56325e-14 0)
(4.89104e-14 1.05238e-14 0)
(7.32192e-14 -5.28669e-15 0)
(5.21621e-14 -8.51306e-14 0)
(1.17563e-13 -1.26578e-13 0)
(4.12433e-14 -1.17986e-13 0)
(-1.39025e-14 -8.68701e-14 0)
(-1.02573e-13 -4.42018e-14 0)
(9.98905e-15 -7.50805e-14 0)
(-5.73194e-14 -8.42135e-14 0)
(2.62963e-14 -6.03487e-14 0)
(-1.51136e-15 -4.57771e-14 0)
(5.93211e-15 -1.4137e-13 0)
(1.9523e-14 -5.44235e-14 0)
(5.76182e-14 -5.15311e-14 0)
(4.85167e-14 -4.88878e-15 0)
(6.13817e-14 -4.79643e-14 0)
(5.59194e-14 8.29252e-14 0)
(-2.04403e-14 9.42778e-14 0)
(-6.04066e-14 8.74878e-14 0)
(-1.19281e-13 3.13923e-14 0)
(-1.20865e-13 -5.77733e-14 0)
(-7.14111e-14 -1.32229e-13 0)
(7.05919e-15 -1.26037e-13 0)
(3.91525e-14 -1.33939e-13 0)
(5.70854e-14 -1.32508e-13 0)
(-6.15834e-14 -6.86729e-14 0)
(-1.11155e-14 -1.16671e-13 0)
(-6.40934e-14 -7.3518e-14 0)
(-4.12147e-14 -8.1909e-14 0)
(-9.78961e-14 -4.72026e-14 0)
(-5.08827e-14 -1.23716e-13 0)
(1.44552e-11 -8.99463e-14 0)
(6.65079e-08 -1.25677e-13 0)
(4.35169e-05 5.23453e-11 0)
(0.00437665 5.81412e-09 0)
(0.1006 1.47841e-07 0)
(0.794522 1.3201e-06 0)
(3.10042 5.98686e-06 0)
(7.83912 1.77994e-05 0)
(15.2323 4.03285e-05 0)