/*--------------------------------*- C++ -*----------------------------------*\
  =========                 |
  \\      /  F ield         | OpenFOAM: The Open Source CFD Toolbox
   \\    /   O peration     | Website:  https://openfoam.org
    \\  /    A nd           | Version:  13
     \\/     M anipulation  |
\*---------------------------------------------------------------------------*/
FoamFile
{
    format      ascii;
    class       volVectorField;
    location    "0.0002";
    object      U;
}
// * * * * * * * * * * * * * * * * * * * * * * * * * * * * * * * * * * * * * //

dimensions      [0 1 -1 0 0 0 0];

internalField   nonuniform List<vector> 
33334
(
(1.05512e-14 -1.86489e-13 0)
(-8.21011e-14 -2.00409e-13 0)
(-3.45369e-14 -1.0986e-13 0)
(2.08604e-14 -1.07926e-13 0)
(1.78102e-13 -3.762e-14 0)
(2.11121e-13 -6.2064e-14 0)
(1.01947e-13 -2.89707e-14 0)
(6.28379e-14 -1.00835e-13 0)
(-8.38881e-14 -1.12979e-13 0)
(-1.48527e-13 -1.303e-13 0)
(-4.25156e-14 -2.14326e-13 0)
(3.51661e-14 -2.47769e-13 0)
(1.80525e-14 -1.60805e-13 0)
(-9.79031e-15 -1.6628e-13 0)
(4.47751e-14 -1.40765e-13 0)
(2.35399e-14 -1.34985e-13 0)
(-4.34439e-14 -1.23378e-13 0)
(-5.75329e-14 -1.91028e-13 0)
(-4.06925e-14 -2.40228e-13 0)
(-1.90953e-14 -2.60681e-13 0)
(-6.97143e-14 -2.74256e-13 0)
(-1.26553e-13 -3.36908e-13 0)
(-2.33185e-14 -3.13309e-13 0)
(1.46223e-13 -2.43773e-13 0)
(1.65915e-13 -1.77001e-13 0)
(-2.48246e-14 -1.43257e-13 0)
(-1.34342e-13 -2.90575e-14 0)
(-8.67566e-14 9.30842e-14 0)
(8.20886e-14 3.70446e-14 0)
(2.22502e-13 -5.69261e-14 0)
(1.06537e-13 -9.59774e-14 0)
(-1.83796e-14 -8.27376e-14 0)
(-1.71737e-13 -8.56306e-14 0)
(-2.4741e-13 -1.60214e-14 0)
(-2.16445e-13 1.16941e-14 0)
(-1.07026e-13 -2.77335e-14 0)
(-1.87322e-14 1.02319e-14 0)
(6.55151e-14 -3.75349e-14 0)
(1.62179e-14 -1.64942e-13 0)
(1.13741e-14 -2.37755e-13 0)
(1.3052e-14 -2.16359e-13 0)
(-1.41003e-13 -1.85605e-13 0)
(-1.25315e-13 -1.2418e-13 0)
(-9.39301e-14 -1.24773e-13 0)
(-2.85375e-14 -3.83771e-14 0)
(6.60237e-14 6.98716e-15 0)
(7.71267e-14 -1.47565e-14 0)
(-3.97558e-14 -2.36709e-14 0)
(-4.1625e-14 6.5675e-14 0)
(-1.58672e-14 3.52613e-14 0)
(-4.309e-14 3.26013e-14 0)
(-5.48056e-15 2.98025e-16 0)
(8.20774e-15 -4.41496e-14 0)
(1.03351e-13 -1.32234e-13 0)
(1.4164e-13 -1.76912e-13 0)
(1.03592e-13 -1.66907e-13 0)
(7.33564e-14 -9.91249e-14 0)
(1.17187e-14 -1.20796e-13 0)
(-1.60142e-13 -1.32089e-13 0)
(-1.97937e-13 -5.99507e-14 0)
(-6.86605e-14 -1.16569e-13 0)
(-6.77346e-14 -4.57907e-14 0)
(-2.42384e-14 -6.39243e-15 0)
(-4.54008e-14 -7.14687e-14 0)
(6.1104e-14 -1.04345e-13 0)
(1.63786e-13 -9.82578e-14 0)
(7.20387e-15 -1.3132e-13 0)
(-7.42417e-14 -5.37634e-14 0)
(-1.10682e-14 -4.71381e-14 0)
(8.19747e-14 3.42579e-14 0)
(1.50766e-13 2.97647e-14 0)
(9.11082e-14 -1.03257e-13 0)
(-2.6436e-14 -2.48035e-13 0)
(-1.06674e-13 -1.34384e-13 0)
(-1.45523e-13 5.74071e-15 0)
(-2.4496e-14 3.20224e-15 0)
(3.30098e-14 -9.47396e-14 0)
(-4.69169e-15 -1.05543e-13 0)
(-1.63106e-13 -1.1785e-13 0)
(-1.08582e-14 -8.51395e-14 0)
(1.20096e-13 -2.17664e-13 0)
(1.17476e-13 -1.43926e-13 0)
(3.20474e-14 -1.36534e-13 0)
(-6.24564e-14 -1.1614e-13 0)
(-1.49475e-13 -9.65659e-14 0)
(-7.01763e-14 -1.58623e-13 0)
(6.98095e-14 -1.42208e-13 0)
(1.7237e-13 -1.42823e-13 0)
(1.33992e-13 -1.53554e-13 0)
(9.25978e-14 -1.71705e-13 0)
(6.11808e-14 -1.48753e-13 0)
(-1.53271e-13 -1.41005e-13 0)
(-1.4006e-13 -4.02338e-14 0)
(5.98201e-14 -7.26768e-14 0)
(1.42888e-13 -4.08963e-14 0)
(2.49426e-14 -4.81986e-14 0)
(-7.31779e-14 -6.33927e-15 0)
(1.51351e-14 2.90637e-14 0)
(-1.98709e-14 8.40526e-14 0)
(-3.20414e-14 1.22427e-13 0)
(-3.28953e-14 2.00571e-14 0)
(-1.60827e-13 5.45128e-15 0)
(-6.07679e-14 1.02786e-13 0)
(1.21357e-13 1.97775e-14 0)
(2.05745e-14 -3.79305e-14 0)
(-2.13964e-14 -9.8031e-14 0)
(-4.48518e-14 -5.69852e-14 0)
(-6.49709e-14 -5.14624e-14 0)
(2.18912e-14 1.30867e-14 0)
(-1.73021e-14 2.24331e-14 0)
(2.9274e-14 4.87037e-15 0)
(1.62752e-14 5.17193e-14 0)
(-2.75685e-14 2.53055e-14 0)
(-7.18573e-14 -1.49476e-14 0)
(-7.37148e-14 5.18754e-15 0)
(8.91933e-14 8.20327e-14 0)
(9.33842e-14 5.63449e-14 0)
(-6.39034e-15 1.29607e-14 0)
(2.11655e-15 -4.46761e-14 0)
(1.03807e-13 -1.62228e-15 0)
(4.35016e-14 -5.25894e-14 0)
(-9.00232e-14 -9.42818e-14 0)
(5.21708e-15 -3.48456e-14 0)
(5.42053e-14 4.00001e-14 0)
(7.58276e-14 4.82609e-14 0)
(1.46772e-14 3.30203e-14 0)
(-1.89502e-13 1.11376e-14 0)
(-9.56106e-14 8.73384e-14 0)
(1.22201e-14 -8.15931e-14 0)
(-4.84043e-14 -1.37681e-13 0)
(-1.6617e-14 -2.01052e-13 0)
(-3.09039e-15 -1.10744e-13 0)
(6.37998e-14 1.08783e-14 0)
(5.92739e-14 3.69582e-14 0)
(-5.18016e-14 5.85365e-14 0)
(-1.77231e-14 -5.22647e-15 0)
(-1.55937e-14 -8.99331e-14 0)
(-1.10593e-14 -5.8658e-14 0)
(5.38562e-14 -1.35401e-13 0)
(1.20646e-13 -2.27883e-13 0)
(1.26115e-13 -1.92605e-13 0)
(2.3394e-15 -1.53205e-13 0)
(-6.6749e-14 -9.70905e-14 0)
(9.91077e-14 -8.62077e-14 0)
(2.76583e-13 -4.91523e-14 0)
(6.31257e-14 -7.26636e-14 0)
(2.54547e-14 -7.09951e-14 0)
(-3.49641e-14 -1.75315e-13 0)
(-1.82941e-13 -5.10691e-14 0)
(-6.92741e-14 6.60161e-14 0)
(-4.18917e-14 5.59258e-14 0)
(-1.92348e-13 5.01438e-14 0)
(-1.09582e-13 1.19358e-13 0)
(-1.65157e-14 -5.37298e-14 0)
(-2.66271e-14 -1.27722e-13 0)
(-2.37749e-14 -2.16996e-13 0)
(-5.42007e-14 -1.92979e-13 0)
(3.0458e-14 -1.07286e-13 0)
(8.2527e-14 -2.48174e-14 0)
(3.48581e-14 2.40549e-14 0)
(1.84689e-14 -3.87058e-14 0)
(-5.64552e-14 9.86637e-16 0)
(-3.84315e-14 -6.29424e-14 0)
(-7.20119e-14 -4.90239e-14 0)
(-4.75183e-14 -6.23775e-14 0)
(1.83172e-13 7.47947e-15 0)
(1.13025e-13 -7.23129e-14 0)
(-3.41301e-14 -3.60515e-13 0)
(9.00738e-15 -2.92503e-13 0)
(-6.70456e-14 -2.28312e-13 0)
(2.84023e-14 -1.95635e-13 0)
(2.41996e-13 -1.54468e-13 0)
(2.60409e-13 -2.30515e-13 0)
(9.58011e-14 -1.37927e-13 0)
(-3.66948e-15 -2.16598e-13 0)
(-8.88536e-14 -2.9617e-13 0)
(-1.77302e-13 -3.33078e-13 0)
(-1.43459e-13 -3.04768e-13 0)
(5.85709e-14 -2.61093e-13 0)
(8.77096e-15 -2.84885e-13 0)
(-4.77932e-14 -2.54723e-13 0)
(4.75475e-14 -1.72068e-13 0)
(7.69416e-14 -2.33571e-13 0)
(-6.95121e-14 -2.25492e-13 0)
(-1.65251e-13 -2.87224e-13 0)
(-9.73457e-14 -3.57109e-13 0)
(7.39274e-15 -3.70433e-13 0)
(-5.76537e-14 -3.8568e-13 0)
(-9.74481e-14 -3.34241e-13 0)
(2.34779e-14 -2.39055e-13 0)
(1.70292e-13 -2.14679e-13 0)
(2.23401e-13 -1.9916e-13 0)
(2.66905e-14 -1.50709e-13 0)
(-5.75029e-14 -8.45716e-14 0)
(-6.48424e-14 -9.0161e-15 0)
(-4.30853e-14 1.28608e-15 0)
(1.66919e-13 -1.29319e-13 0)
(1.4609e-13 -2.39684e-13 0)
(4.19152e-14 -1.55406e-13 0)
(-1.23663e-13 -1.22236e-13 0)
(-2.18144e-13 -8.7731e-14 0)
(-1.4818e-13 -4.77411e-14 0)
(-9.17592e-14 1.41912e-14 0)
(-7.02179e-14 -2.9683e-14 0)
(-1.40708e-14 -9.30299e-14 0)
(-1.26025e-14 -1.87586e-13 0)
(-2.74278e-14 -1.41935e-13 0)
(-6.70901e-14 -2.01829e-13 0)
(-9.45127e-14 -1.97213e-13 0)
(-6.65405e-14 -1.99022e-13 0)
(-5.71069e-14 -1.98584e-13 0)
(8.8006e-15 -1.38263e-13 0)
(8.59317e-14 -1.06065e-13 0)
(1.19353e-13 -1.21505e-13 0)
(2.91425e-14 -7.25922e-14 0)
(-4.72211e-14 -2.94259e-16 0)
(-6.05668e-14 2.84792e-14 0)
(-2.72381e-14 -1.97102e-14 0)
(-1.7706e-14 -8.7663e-14 0)
(-7.67864e-14 -1.23556e-13 0)
(3.09636e-14 -1.44401e-13 0)
(2.22053e-13 -2.36135e-13 0)
(1.93418e-13 -2.22536e-13 0)
(2.66236e-14 -2.20571e-13 0)
(-4.46943e-14 -3.04975e-13 0)
(-1.14798e-13 -2.57172e-13 0)
(-1.77003e-13 -1.93496e-13 0)
(-6.85402e-14 -1.80086e-13 0)
(-1.16022e-14 -1.28704e-13 0)
(-3.34147e-14 -4.9983e-14 0)
(-4.35013e-14 -5.91606e-14 0)
(4.91554e-14 1.55338e-15 0)
(9.4943e-14 -4.76182e-14 0)
(-1.8199e-15 -1.16767e-13 0)
(-1.016e-14 -1.02268e-13 0)
(1.73194e-14 -1.75016e-14 0)
(4.92487e-14 -7.24685e-14 0)
(9.83047e-14 -8.4689e-14 0)
(-2.32129e-15 -1.80608e-13 0)
(-8.65128e-14 -2.41748e-13 0)
(-2.61795e-14 -1.96977e-13 0)
(-5.80754e-14 -6.08432e-14 0)
(-3.37639e-14 -7.94773e-14 0)
(-2.78729e-14 -8.38081e-14 0)
(-6.16618e-14 -1.53399e-13 0)
(-1.05189e-13 -8.60916e-14 0)
(-3.83501e-15 -3.02848e-14 0)
(1.34904e-13 -7.00079e-14 0)
(5.57709e-14 -1.19861e-13 0)
(-8.48222e-15 -2.37234e-13 0)
(-5.44568e-14 -2.00884e-13 0)
(-1.2593e-13 -1.60735e-13 0)
(-7.55553e-14 -1.32042e-13 0)
(2.5336e-14 -1.60143e-13 0)
(1.85415e-13 -8.97434e-14 0)
(1.90204e-13 -1.19918e-13 0)
(8.51968e-14 -1.16226e-13 0)
(2.63482e-15 -1.67938e-13 0)
(-6.3536e-14 -1.3878e-13 0)
(-7.41991e-14 -4.4836e-14 0)
(4.48022e-15 -1.05971e-14 0)
(4.07777e-14 -7.33801e-14 0)
(2.07765e-14 -8.20258e-14 0)
(5.46712e-14 -4.65283e-14 0)
(9.95343e-14 3.33305e-15 0)
(4.33433e-14 -2.97062e-15 0)
(-4.76856e-14 -5.18756e-15 0)
(-5.23527e-14 -2.48691e-14 0)
(-4.47656e-14 5.98699e-14 0)
(-3.69997e-14 1.06105e-13 0)
(-1.2495e-14 4.97671e-14 0)
(-7.06961e-14 -8.25999e-14 0)
(-4.46958e-14 -6.40014e-14 0)
(-1.04007e-13 -1.00052e-13 0)
(-4.53187e-14 -1.11611e-13 0)
(8.05355e-14 -8.98937e-14 0)
(5.31563e-14 -9.89126e-14 0)
(1.11011e-13 6.37783e-16 0)
(7.15376e-14 -1.28005e-14 0)
(-8.30151e-14 7.67542e-14 0)
(-9.03592e-14 3.19619e-14 0)
(-3.9175e-14 1.15895e-13 0)
(3.59474e-14 4.60856e-14 0)
(4.1149e-14 5.33837e-15 0)
(2.40554e-16 -8.36932e-14 0)
(3.18608e-14 -1.45945e-14 0)
(5.0286e-14 -4.23039e-14 0)
(4.4612e-15 -5.8537e-14 0)
(-8.6839e-15 -4.6421e-14 0)
(3.57187e-14 -1.34319e-14 0)
(2.52167e-14 -4.66892e-14 0)
(5.15264e-14 -5.08684e-14 0)
(8.04205e-14 -1.32037e-14 0)
(-6.07854e-14 5.36852e-14 0)
(-1.7916e-13 1.1953e-13 0)
(-1.68853e-13 4.4146e-14 0)
(-1.05208e-13 -6.1321e-14 0)
(-3.62987e-14 -1.23468e-13 0)
(8.39836e-14 -1.47934e-13 0)
(7.59043e-14 -9.25818e-14 0)
(9.4661e-14 -9.38739e-14 0)
(1.94993e-14 -2.9278e-14 0)
(-7.41096e-14 4.34687e-14 0)
(-2.2643e-14 -3.84025e-14 0)
(-1.31958e-14 -1.28925e-15 0)
(-4.44212e-14 -8.13218e-14 0)
(5.40297e-14 -1.08051e-13 0)
(1.32347e-13 -1.46395e-13 0)
(5.99679e-14 -9.08331e-14 0)
(1.90271e-14 -5.52044e-14 0)
(1.32894e-13 -2.2323e-14 0)
(1.85726e-13 -1.38159e-13 0)
(6.37434e-14 -1.61462e-13 0)
(-2.56428e-14 -1.66522e-13 0)
(-8.45733e-15 -1.96853e-13 0)
(-7.34609e-14 -1.58359e-13 0)
(-2.5446e-14 -8.53758e-14 0)
(2.39438e-14 -2.30013e-14 0)
(-6.43211e-14 4.68284e-14 0)
(-1.70975e-13 1.40586e-13 0)
(-1.78133e-13 6.37139e-14 0)
(-1.15661e-13 -5.06805e-14 0)
(-1.08225e-13 -1.68145e-13 0)
(-1.285e-14 -2.05464e-13 0)
(1.51455e-13 -1.40974e-13 0)
(1.39198e-13 -1.27637e-13 0)
(8.14936e-14 -1.00076e-13 0)
(6.89536e-14 -9.25883e-15 0)
(-2.26846e-14 2.07025e-14 0)
(-8.97721e-14 4.24862e-14 0)
(-5.96291e-14 2.4959e-15 0)
(-1.07861e-14 8.41178e-14 0)
(1.17082e-13 7.85767e-14 0)
(5.04027e-14 -4.52399e-14 0)
(6.05448e-14 -3.61106e-13 0)
(6.57781e-14 -3.22266e-13 0)
(8.94174e-15 -2.54267e-13 0)
(5.46698e-14 -1.59669e-13 0)
(1.34907e-13 -1.79087e-13 0)
(2.46794e-13 -2.58017e-13 0)
(1.56555e-13 -2.79199e-13 0)
(-7.62983e-14 -3.15742e-13 0)
(-1.68985e-13 -2.99571e-13 0)
(-1.35846e-13 -2.37234e-13 0)
(-1.1633e-14 -1.94908e-13 0)
(2.6999e-14 -1.9632e-13 0)
(-3.47825e-14 -2.60778e-13 0)
(3.44944e-14 -1.6487e-13 0)
(6.87288e-14 -1.54952e-13 0)
(3.06177e-14 -2.23675e-13 0)
(-6.40393e-14 -2.79974e-13 0)
(-1.93062e-13 -2.38736e-13 0)
(-7.86571e-14 -2.19958e-13 0)
(-5.29342e-14 -2.77884e-13 0)
(-8.69735e-14 -3.21835e-13 0)
(-5.05992e-14 -2.2191e-13 0)
(7.27026e-14 -1.86712e-13 0)
(2.10547e-13 -1.74249e-13 0)
(2.61162e-13 -2.00008e-13 0)
(5.62789e-14 -1.94112e-13 0)
(-7.18223e-14 -1.32955e-13 0)
(-1.5714e-14 -1.3105e-13 0)
(1.91848e-14 -8.86984e-15 0)
(-8.35025e-15 -4.85579e-14 0)
(1.13591e-13 -1.58011e-13 0)
(8.31127e-14 -2.30426e-13 0)
(-5.58671e-14 -2.02683e-13 0)
(-1.6477e-13 -1.74901e-13 0)
(-1.25319e-13 -1.13142e-13 0)
(-1.07947e-13 -4.68421e-14 0)
(-8.7002e-14 -9.83529e-14 0)
(-1.38865e-14 -7.22031e-14 0)
(-3.63971e-14 -3.69331e-14 0)
(-5.17073e-14 -3.68978e-15 0)
(-9.01626e-14 -5.55183e-14 0)
(-1.7496e-13 -1.17918e-13 0)
(-1.21049e-13 -1.73521e-13 0)
(-3.48491e-14 -1.15801e-13 0)
(5.4426e-14 -1.50377e-13 0)
(8.15379e-14 -1.04584e-13 0)
(1.25889e-13 -1.44627e-13 0)
(6.65468e-14 -1.1898e-13 0)
(2.66743e-14 -5.92923e-14 0)
(-2.78537e-14 9.64715e-15 0)
(-1.25609e-13 -3.37381e-14 0)
(-9.37336e-14 -5.46944e-14 0)
(-3.07367e-14 -1.26839e-13 0)
(5.42176e-14 -8.35322e-14 0)
(1.22713e-13 -1.66022e-13 0)
(1.45145e-13 -1.69295e-13 0)
(-3.1006e-15 -2.14002e-13 0)
(-1.01746e-13 -2.13707e-13 0)
(-1.31766e-13 -1.93647e-13 0)
(-1.33093e-13 -1.70498e-13 0)
(-5.15908e-15 -1.3885e-13 0)
(7.00916e-14 -1.17879e-13 0)
(3.68524e-14 -7.81327e-14 0)
(3.77874e-14 -1.4102e-14 0)
(8.32724e-14 2.79414e-14 0)
(-1.3394e-14 -3.95962e-14 0)
(-9.36791e-14 -1.01224e-13 0)
(-3.71653e-15 -1.01917e-13 0)
(3.06776e-14 -6.5597e-14 0)
(-2.15608e-14 -9.73051e-14 0)
(-1.5284e-15 -1.34658e-13 0)
(-6.34301e-14 -2.02993e-13 0)
(-2.49396e-14 -1.26272e-13 0)
(4.93574e-14 -1.31267e-13 0)
(-1.80987e-14 -1.2836e-13 0)
(-4.14297e-14 -1.5945e-13 0)
(-4.40439e-14 -1.33601e-13 0)
(-2.08203e-14 -1.18154e-13 0)
(2.77882e-14 -5.64086e-14 0)
(5.94108e-15 2.6075e-14 0)
(5.9963e-14 -3.03861e-15 0)
(-8.97158e-14 -5.58757e-14 0)
(-8.49465e-14 -1.53411e-13 0)
(-9.46935e-15 -1.92386e-13 0)
(-5.04113e-14 -1.45952e-13 0)
(-2.15541e-14 -7.30408e-14 0)
(1.00576e-13 -7.44669e-14 0)
(2.02405e-13 -3.15077e-14 0)
(1.37709e-13 -5.38337e-14 0)
(4.85265e-14 -5.09843e-14 0)
(2.5097e-14 -1.03879e-13 0)
(2.26212e-15 -4.97821e-14 0)
(-4.17828e-15 -1.34819e-15 0)
(-5.40382e-14 1.37251e-14 0)
(-7.75947e-15 -8.48808e-14 0)
(6.35929e-14 -8.66143e-14 0)
(7.15516e-14 -1.05768e-13 0)
(7.55396e-14 -1.23469e-13 0)
(1.50475e-14 -1.26129e-13 0)
(-3.29702e-14 -8.67507e-14 0)
(3.61718e-14 -5.03078e-14 0)
(3.26924e-14 8.81052e-15 0)
(-8.20277e-14 -9.84987e-15 0)
(-9.6006e-14 -6.47913e-14 0)
(-7.45513e-14 -8.61737e-14 0)
(-3.94911e-14 -8.63626e-14 0)
(-1.27911e-13 -1.2073e-13 0)
(-1.03757e-13 -7.55017e-14 0)
(2.10314e-15 -1.96306e-13 0)
(1.20459e-13 -1.99863e-13 0)
(1.71992e-13 -1.34769e-13 0)
(8.75627e-14 -1.7231e-13 0)
(-2.77824e-14 -1.02807e-13 0)
(-2.48339e-14 -3.84139e-14 0)
(-5.53494e-14 2.10365e-14 0)
(-2.49149e-14 -3.16852e-14 0)
(-3.03888e-14 -5.84639e-14 0)
(2.91493e-14 -8.93265e-14 0)
(6.24573e-14 -5.08476e-14 0)
(2.7879e-14 -1.02265e-13 0)
(2.59934e-14 -6.91239e-14 0)
(-2.0145e-14 -6.03596e-14 0)
(-1.64027e-14 -1.01669e-13 0)
(9.83133e-15 -1.83895e-13 0)
(9.6676e-14 -1.26373e-13 0)
(1.3639e-13 -1.21714e-13 0)
(4.54336e-14 -4.63561e-14 0)
(-1.41916e-13 -3.84979e-14 0)
(-2.09829e-13 -1.39889e-14 0)
(-2.19213e-13 -4.81863e-14 0)
(-1.26788e-13 -5.71985e-14 0)
(2.20655e-14 -1.02368e-13 0)
(6.84678e-14 -1.07424e-13 0)
(1.25933e-13 -1.56062e-13 0)
(1.18898e-13 -1.05492e-13 0)
(-3.73645e-14 -6.62381e-14 0)
(-5.54994e-15 -2.55214e-14 0)
(-3.19505e-14 -4.8199e-14 0)
(-5.96426e-14 -2.4569e-14 0)
(2.84606e-14 3.36591e-14 0)
(9.88071e-14 -2.68301e-14 0)
(1.0336e-13 -2.95841e-14 0)
(7.72991e-14 6.17617e-15 0)
(7.73958e-14 -3.3943e-14 0)
(9.28877e-14 -6.8003e-14 0)
(4.34607e-14 -1.61402e-13 0)
(-1.0587e-14 -1.40183e-13 0)
(-4.95256e-14 -1.68754e-13 0)
(-8.67038e-14 -2.24124e-13 0)
(7.26707e-15 -1.77416e-13 0)
(1.10151e-13 -1.32081e-13 0)
(2.38783e-14 -9.00087e-14 0)
(-1.20731e-13 -3.34404e-15 0)
(-2.0028e-13 -2.57698e-14 0)
(-2.31286e-13 -6.1509e-14 0)
(-1.86746e-13 -6.40938e-14 0)
(-2.9246e-14 -1.54664e-14 0)
(8.16641e-14 -6.9547e-14 0)
(1.24677e-13 -1.34055e-13 0)
(1.83348e-13 -1.29304e-13 0)
(1.43231e-13 -7.13303e-14 0)
(2.61971e-14 -2.79996e-14 0)
(-5.5851e-14 2.6132e-15 0)
(-4.5515e-14 3.08488e-14 0)
(2.89511e-14 1.06654e-13 0)
(1.29423e-14 6.61281e-14 0)
(-6.08091e-14 -1.07597e-14 0)
(1.20796e-14 -1.4415e-13 0)
(4.63901e-14 -2.09492e-13 0)
(6.28613e-14 -1.6844e-13 0)
(7.00515e-14 -1.77703e-13 0)
(1.17154e-13 -1.19737e-13 0)
(1.6883e-13 -1.20577e-13 0)
(9.47747e-14 -1.87164e-13 0)
(-1.09783e-14 -2.06151e-13 0)
(-6.4284e-14 -1.31126e-13 0)
(-8.02947e-14 -8.05764e-14 0)
(-7.96994e-14 -7.52692e-14 0)
(-3.01032e-14 -1.38114e-13 0)
(3.77169e-14 -1.2986e-13 0)
(2.47909e-14 -1.02287e-13 0)
(-1.89857e-15 -2.14929e-13 0)
(3.64267e-15 -2.23226e-13 0)
(-4.70935e-14 -2.42106e-13 0)
(-1.51568e-13 -1.94531e-13 0)
(-1.66143e-13 -1.46751e-13 0)
(-3.84353e-14 -1.4527e-13 0)
(-1.45591e-14 -2.01909e-13 0)
(9.66235e-15 -1.71092e-13 0)
(7.2635e-14 -8.45187e-14 0)
(1.60884e-13 -4.77202e-14 0)
(1.62867e-13 -1.43901e-13 0)
(4.50801e-14 -2.12986e-13 0)
(1.07745e-14 -1.62787e-13 0)
(4.61774e-14 -1.3383e-13 0)
(1.89472e-14 -1.69912e-13 0)
(1.6462e-14 -1.31628e-13 0)
(-2.00855e-14 -1.53216e-13 0)
(2.50907e-15 -2.45092e-13 0)
(1.73055e-14 -1.86779e-13 0)
(-7.57057e-14 -1.15814e-13 0)
(-4.77099e-14 -4.00361e-14 0)
(-1.06913e-13 -2.37175e-14 0)
(-1.05391e-13 2.90617e-15 0)
(8.85244e-15 -2.99359e-14 0)
(4.67218e-14 4.97859e-14 0)
(-1.79665e-14 1.22695e-13 0)
(-1.36275e-13 8.97339e-14 0)
(-1.93794e-13 2.87733e-14 0)
(-7.29713e-14 5.68512e-14 0)
(-1.04669e-14 1.16217e-13 0)
(3.24991e-14 7.83994e-14 0)
(1.11005e-13 6.28014e-14 0)
(9.17579e-14 7.71162e-14 0)
(7.42149e-14 3.6076e-14 0)
(7.38588e-14 1.12465e-13 0)
(-2.04347e-14 8.29989e-14 0)
(-9.33705e-14 1.1009e-13 0)
(-1.43535e-13 1.28721e-13 0)
(-1.10059e-13 5.26009e-14 0)
(-1.64479e-14 1.465e-14 0)
(1.07214e-13 2.78038e-14 0)
(1.70055e-13 2.63838e-14 0)
(1.62914e-14 1.1265e-14 0)
(-7.74764e-14 6.95352e-15 0)
(-7.64749e-14 6.03101e-14 0)
(-6.81235e-14 7.08233e-14 0)
(-4.35167e-14 8.64496e-14 0)
(3.13974e-14 6.14285e-14 0)
(8.6854e-14 2.7933e-14 0)
(7.31852e-14 1.09324e-13 0)
(3.00714e-14 6.51399e-14 0)
(-6.81626e-14 3.3571e-14 0)
(-4.85274e-14 -7.35954e-15 0)
(5.05001e-14 3.05303e-14 0)
(1.30246e-14 1.55511e-14 0)
(-5.44603e-14 1.3391e-15 0)
(7.00377e-15 -3.77377e-14 0)
(-2.05265e-14 4.51029e-14 0)
(-3.57305e-14 9.4591e-14 0)
(-6.08282e-15 5.12257e-14 0)
(-1.8563e-14 4.47057e-14 0)
(-3.06562e-14 3.9856e-14 0)
(-2.61956e-14 2.24986e-14 0)
(-4.80767e-14 1.59182e-14 0)
(7.3474e-15 -6.68747e-14 0)
(4.71856e-14 -1.46645e-14 0)
(4.21078e-14 -3.72214e-15 0)
(-8.92371e-14 -3.73794e-14 0)
(-1.03301e-13 1.7391e-14 0)
(-1.12242e-14 -1.25696e-14 0)
(1.55441e-14 4.98402e-14 0)
(-2.98036e-15 1.04385e-13 0)
(7.84447e-14 5.95847e-14 0)
(1.65842e-13 -1.16805e-14 0)
(1.37536e-13 2.25756e-14 0)
(3.08864e-14 2.25976e-14 0)
(4.3468e-15 4.93688e-14 0)
(4.71531e-14 6.0961e-14 0)
(1.33015e-14 9.472e-14 0)
(-1.00793e-13 8.22439e-14 0)
(-3.5799e-14 3.22402e-14 0)
(1.88792e-15 -1.5473e-14 0)
(-1.60228e-14 -6.72874e-14 0)
(7.49167e-14 -6.04727e-14 0)
(4.77058e-14 -9.17275e-14 0)
(5.42168e-14 -4.21746e-14 0)
(5.73086e-14 -3.73004e-14 0)
(2.5124e-14 -9.00184e-14 0)
(-1.01138e-13 -5.06624e-14 0)
(-1.08933e-13 -1.83778e-14 0)
(-9.16915e-14 1.01351e-14 0)
(-6.62002e-14 -2.94737e-14 0)
(-7.11561e-14 -5.08877e-14 0)
(-1.03425e-13 -1.96558e-14 0)
(-3.5784e-14 -5.50753e-14 0)
(9.99912e-14 4.4366e-15 0)
(1.15405e-13 -4.80679e-14 0)
(8.0493e-14 -8.80471e-14 0)
(1.97264e-14 -9.49292e-14 0)
(3.23999e-14 -6.39375e-14 0)
(-1.38903e-14 -4.22667e-14 0)
(-2.24004e-14 1.83115e-14 0)
(-1.82116e-15 3.68666e-14 0)
(6.83712e-14 5.24343e-14 0)
(2.92713e-14 2.67158e-14 0)
(-3.69436e-14 -1.46994e-14 0)
(2.59469e-15 -8.7397e-14 0)
(-1.29405e-14 -1.10303e-13 0)
(-3.69844e-14 -1.19128e-13 0)
(1.06698e-14 -7.85682e-14 0)
(1.129e-13 -2.86707e-14 0)
(1.48551e-13 -6.87784e-14 0)
(5.40706e-14 -1.31287e-13 0)
(-1.30078e-13 -7.2654e-14 0)
(-2.01443e-13 -1.54698e-14 0)
(-1.66568e-13 -5.82842e-15 0)
(-1.10233e-13 8.0858e-14 0)
(-1.26913e-14 3.12905e-14 0)
(6.98315e-14 -1.59266e-14 0)
(8.03611e-14 -7.3427e-15 0)
(7.78869e-14 -4.16603e-14 0)
(2.19296e-14 -4.91542e-14 0)
(1.61415e-14 1.83398e-14 0)
(-1.07265e-14 -2.8434e-16 0)
(-5.37858e-15 3.67987e-14 0)
(5.61656e-14 7.55444e-14 0)
(2.2412e-14 7.37305e-14 0)
(7.08423e-14 3.81034e-14 0)
(5.70798e-14 -4.61832e-15 0)
(5.3401e-14 -6.2328e-14 0)
(1.3528e-15 -7.38894e-14 0)
(-1.42504e-14 -1.4254e-13 0)
(-8.14684e-15 -1.86445e-13 0)
(-6.05053e-14 -1.68289e-13 0)
(-8.88282e-14 -1.19963e-13 0)
(3.11371e-14 -8.82885e-14 0)
(8.41139e-14 -1.44699e-13 0)
(8.33848e-14 -2.0032e-13 0)
(-8.23302e-14 -8.19531e-14 0)
(-2.39275e-13 -7.19977e-14 0)
(-1.61782e-13 -5.58541e-14 0)
(-9.33913e-14 9.19677e-14 0)
(-5.14011e-15 1.53665e-13 0)
(2.91506e-14 1.21868e-13 0)
(9.02626e-14 5.40807e-14 0)
(1.65174e-13 3.77237e-14 0)
(1.11246e-13 -1.58046e-14 0)
(1.49832e-14 -6.11385e-14 0)
(-5.41673e-14 -6.53413e-14 0)
(2.98557e-14 -6.39282e-15 0)
(8.70608e-14 5.03022e-14 0)
(3.23395e-15 6.42309e-14 0)
(-6.15611e-14 7.33548e-14 0)
(1.61227e-14 2.72319e-14 0)
(6.05431e-14 -2.28587e-14 0)
(2.73143e-14 -2.69861e-14 0)
(9.6517e-14 -5.54251e-14 0)
(1.67424e-13 -1.52064e-14 0)
(1.29843e-13 8.25717e-15 0)
(5.54082e-14 -2.64086e-15 0)
(1.57967e-14 5.14886e-15 0)
(-3.82843e-15 1.19259e-14 0)
(-9.45023e-14 6.85034e-15 0)
(-5.15814e-14 -3.17873e-14 0)
(7.4685e-16 -6.49261e-14 0)
(8.51332e-15 -3.91481e-14 0)
(-3.86588e-14 -1.01189e-13 0)
(-6.36519e-14 -1.47418e-13 0)
(-1.05948e-14 -1.38873e-13 0)
(8.26627e-15 -1.442e-13 0)
(-6.84959e-14 -9.62043e-14 0)
(-8.95308e-14 -1.32013e-14 0)
(-7.11613e-14 -4.31038e-15 0)
(-5.95556e-14 -3.01527e-14 0)
(3.99217e-14 -6.9287e-14 0)
(1.10385e-13 1.10561e-14 0)
(1.69808e-13 9.34725e-14 0)
(1.03256e-13 -2.18806e-15 0)
(3.4807e-15 -2.32814e-14 0)
(-3.90523e-14 -1.16626e-13 0)
(-3.67212e-14 -1.84993e-13 0)
(-1.45337e-14 -2.21349e-13 0)
(7.2178e-14 -1.57853e-13 0)
(3.00814e-14 -1.10567e-13 0)
(6.12321e-14 -1.4199e-14 0)
(3.20164e-14 1.45896e-14 0)
(-3.32733e-14 2.29791e-14 0)
(-5.14679e-15 -3.15395e-14 0)
(-5.10315e-14 -9.90662e-16 0)
(-8.8677e-14 5.05362e-14 0)
(4.70275e-15 8.29742e-14 0)
(9.28828e-14 6.21284e-14 0)
(-5.49552e-16 4.81275e-14 0)
(-1.15024e-13 1.19293e-13 0)
(-1.19936e-13 1.40083e-13 0)
(-3.87245e-14 2.00198e-13 0)
(3.65551e-15 2.10113e-13 0)
(2.5875e-14 1.95209e-13 0)
(8.05031e-14 1.78856e-13 0)
(3.65678e-14 1.50608e-13 0)
(2.64217e-14 1.31003e-13 0)
(5.26869e-14 7.49734e-14 0)
(-5.83001e-16 7.55159e-14 0)
(-7.13016e-14 5.56274e-14 0)
(-1.30772e-13 9.43342e-14 0)
(-1.36534e-13 1.4809e-13 0)
(-3.84273e-14 1.10651e-13 0)
(1.22214e-13 1.30575e-13 0)
(1.39043e-13 7.74461e-14 0)
(3.04096e-15 9.83987e-14 0)
(1.12491e-14 1.78374e-13 0)
(-5.56925e-14 1.7442e-13 0)
(-1.11902e-13 2.0148e-13 0)
(-4.4039e-14 2.3116e-13 0)
(-1.26723e-14 1.69614e-13 0)
(8.02019e-14 1.34626e-13 0)
(8.09179e-14 6.64484e-14 0)
(-1.441e-14 -3.21528e-15 0)
(-5.91351e-14 3.8653e-14 0)
(-3.81244e-14 9.49064e-14 0)
(2.94079e-14 1.02142e-13 0)
(5.72774e-15 6.45876e-14 0)
(-4.653e-14 8.79681e-14 0)
(2.18947e-14 9.43936e-14 0)
(7.23833e-14 1.06969e-13 0)
(-4.00163e-14 9.97189e-14 0)
(1.31936e-14 1.43927e-13 0)
(1.40249e-14 2.21847e-13 0)
(-4.20288e-14 2.36515e-13 0)
(-1.04762e-13 1.56101e-13 0)
(-1.10463e-13 1.26206e-13 0)
(-4.52139e-14 4.86455e-14 0)
(6.64818e-14 -4.62315e-15 0)
(4.19625e-14 -2.56026e-14 0)
(-5.45829e-14 -1.05075e-14 0)
(-6.09157e-14 7.23289e-14 0)
(5.53563e-15 7.36801e-14 0)
(2.75415e-14 1.09984e-13 0)
(-5.17156e-15 1.28197e-13 0)
(1.67593e-14 1.01621e-13 0)
(1.39828e-13 9.61123e-15 0)
(1.57706e-13 -9.66345e-15 0)
(9.65153e-14 2.41822e-14 0)
(3.95119e-14 8.82207e-14 0)
(9.89084e-15 1.01451e-13 0)
(-1.08594e-14 4.82087e-14 0)
(-6.19381e-14 8.612e-14 0)
(-5.43431e-14 1.13292e-13 0)
(-5.22625e-14 8.34539e-14 0)
(-6.18209e-14 2.63135e-14 0)
(-2.47094e-15 -1.91442e-14 0)
(1.1811e-14 -4.3702e-14 0)
(3.37861e-14 -6.68337e-14 0)
(3.13068e-14 -5.21013e-14 0)
(1.84443e-14 -9.25488e-14 0)
(-6.53201e-15 -3.6132e-14 0)
(-6.03314e-14 4.20307e-14 0)
(-6.45215e-14 7.994e-15 0)
(-7.69565e-14 2.38747e-14 0)
(-9.0998e-14 1.73012e-14 0)
(-5.56134e-14 2.3838e-14 0)
(2.53329e-14 7.80271e-14 0)
(7.11294e-14 1.05758e-13 0)
(6.58744e-14 9.73992e-14 0)
(6.08427e-14 5.70312e-14 0)
(2.88905e-14 -1.98119e-14 0)
(3.74649e-14 -2.7338e-14 0)
(-9.28567e-15 6.77265e-15 0)
(3.94859e-14 7.67701e-14 0)
(3.20481e-14 1.43715e-13 0)
(2.16564e-14 1.68029e-13 0)
(-3.50026e-14 9.78861e-14 0)
(-9.54889e-14 8.4218e-14 0)
(-5.97295e-14 5.33489e-14 0)
(-4.24544e-14 -1.68549e-14 0)
(2.32907e-14 -4.45215e-14 0)
(7.41941e-14 2.45568e-14 0)
(9.78922e-14 2.27602e-14 0)
(8.83194e-14 -2.71185e-14 0)
(5.59009e-14 -1.09899e-13 0)
(-6.00872e-14 -8.80839e-14 0)
(-1.54402e-13 -3.36087e-14 0)
(-1.32118e-13 -3.12677e-14 0)
(-6.61193e-14 1.34826e-14 0)
(-3.3195e-14 8.6658e-14 0)
(5.10166e-14 6.32908e-14 0)
(1.08782e-13 5.02548e-14 0)
(7.53809e-14 3.09014e-14 0)
(3.0222e-14 4.52193e-14 0)
(2.94461e-14 8.54519e-14 0)
(-2.86939e-14 6.13476e-14 0)
(-2.92202e-14 2.53143e-14 0)
(7.31975e-14 -6.41669e-15 0)
(7.09931e-14 -1.70186e-14 0)
(1.42914e-14 -1.69169e-14 0)
(-1.51608e-14 -1.17658e-13 0)
(-1.06906e-14 -6.83041e-14 0)
(-1.94014e-14 -1.26505e-13 0)
(-6.19478e-14 -1.45849e-13 0)
(-3.69329e-14 -1.85097e-13 0)
(-1.26838e-15 -1.50564e-13 0)
(-1.49493e-14 -5.73956e-14 0)
(3.01039e-14 -6.10203e-14 0)
(3.50474e-14 -9.70051e-14 0)
(9.69068e-14 -6.86985e-14 0)
(-3.31314e-14 -6.81598e-14 0)
(-2.07867e-13 -3.27562e-15 0)
(-7.15398e-14 -2.61183e-14 0)
(-1.10186e-14 6.89344e-14 0)
(9.99289e-15 9.89658e-14 0)
(3.64286e-14 1.86944e-13 0)
(6.91002e-14 1.81498e-13 0)
(1.068e-13 1.20122e-13 0)
(5.15165e-14 1.13039e-13 0)
(-2.16612e-14 -1.47125e-14 0)
(-2.27467e-14 -2.30843e-14 0)
(4.95428e-14 -5.0279e-14 0)
(1.16495e-13 -1.16472e-13 0)
(4.07968e-14 -5.7542e-14 0)
(-1.5194e-14 1.81586e-14 0)
(-1.0082e-14 2.01257e-13 0)
(-1.14498e-14 1.24551e-13 0)
(2.04476e-14 1.22565e-13 0)
(7.31837e-14 1.31875e-13 0)
(1.62789e-13 7.14233e-14 0)
(1.86802e-13 -2.23626e-14 0)
(6.70603e-14 2.73832e-15 0)
(-2.43765e-14 9.56982e-14 0)
(-1.60724e-14 1.74453e-13 0)
(-7.99391e-14 1.28662e-13 0)
(-1.31117e-13 1.04844e-13 0)
(-3.45659e-14 2.14871e-14 0)
(1.73791e-14 6.5827e-14 0)
(-4.64047e-14 4.63018e-14 0)
(-4.44764e-14 5.06809e-14 0)
(-4.0221e-14 3.31895e-14 0)
(2.51408e-14 2.42284e-14 0)
(1.5459e-14 3.70552e-14 0)
(-6.12691e-15 1.08018e-13 0)
(-9.03357e-14 4.46245e-14 0)
(-1.08223e-13 6.54011e-14 0)
(4.3642e-14 4.26657e-14 0)
(1.99583e-13 8.17452e-14 0)
(1.69887e-13 4.90957e-14 0)
(5.2243e-14 1.59249e-13 0)
(-1.27524e-13 1.33911e-13 0)
(-1.26846e-13 3.554e-14 0)
(-4.32671e-14 -3.58672e-14 0)
(3.61849e-14 -3.23513e-14 0)
(9.01433e-14 1.48199e-14 0)
(1.07616e-13 1.12738e-14 0)
(1.33135e-13 9.16618e-14 0)
(1.94589e-14 1.42619e-13 0)
(-1.04606e-13 1.08032e-13 0)
(-6.10486e-14 9.03541e-16 0)
(-6.06601e-14 -6.97328e-14 0)
(-1.83329e-14 -4.62775e-14 0)
(3.7932e-15 1.7028e-14 0)
(4.24912e-15 -8.07852e-14 0)
(-1.60441e-15 -7.75751e-14 0)
(-4.12424e-14 -1.07004e-14 0)
(-6.99063e-14 4.72161e-14 0)
(-4.12803e-14 2.21236e-14 0)
(9.89476e-15 6.66818e-14 0)
(2.96721e-14 2.66903e-14 0)
(5.587e-14 4.36746e-14 0)
(1.21755e-14 -1.78615e-14 0)
(-1.69971e-14 1.2552e-14 0)
(-3.41575e-15 -3.82892e-14 0)
(-5.10466e-14 -2.36765e-14 0)
(-2.71373e-14 -2.64321e-14 0)
(-7.21239e-14 -4.95891e-14 0)
(-9.70504e-14 -5.29355e-15 0)
(-5.57127e-14 5.9457e-14 0)
(6.37671e-14 7.32813e-14 0)
(1.41599e-13 1.23613e-14 0)
(1.0032e-13 -2.50215e-15 0)
(3.64337e-14 6.23341e-14 0)
(-6.25403e-14 -2.42497e-14 0)
(-4.21241e-14 4.64307e-14 0)
(-4.27718e-14 1.02056e-13 0)
(-2.21188e-14 9.00806e-14 0)
(2.44723e-17 1.15383e-13 0)
(-6.29344e-14 3.59294e-14 0)
(-2.52243e-14 -5.95865e-14 0)
(3.37468e-14 -6.30448e-14 0)
(3.28506e-14 4.79563e-14 0)
(-8.81123e-15 -2.53191e-14 0)
(1.98336e-15 -6.0857e-14 0)
(-1.31772e-14 -2.61638e-14 0)
(9.87578e-15 4.12964e-14 0)
(1.46482e-14 -2.83483e-14 0)
(-1.58441e-14 7.66267e-15 0)
(5.46237e-14 4.23085e-14 0)
(8.4208e-14 7.00003e-14 0)
(-8.93702e-14 4.53495e-14 0)
(-1.13105e-13 9.93454e-15 0)
(-1.18472e-13 1.81413e-14 0)
(-8.34136e-14 6.63315e-14 0)
(-2.63882e-14 1.4666e-14 0)
(3.66393e-14 5.79483e-15 0)
(-1.43501e-15 4.39943e-14 0)
(-2.23293e-14 4.21784e-14 0)
(3.85885e-14 8.74819e-15 0)
(4.77272e-14 3.25506e-14 0)
(-4.7998e-15 9.08894e-14 0)
(-4.62116e-14 8.93106e-14 0)
(2.57638e-14 3.23007e-14 0)
(1.18262e-13 -1.07185e-13 0)
(1.40699e-13 -3.29005e-14 0)
(9.3594e-14 7.59372e-15 0)
(1.66419e-14 -1.46182e-14 0)
(1.39106e-16 -7.20245e-14 0)
(-1.84382e-14 -2.66832e-14 0)
(-2.84307e-14 2.41266e-14 0)
(-1.13503e-13 3.60823e-14 0)
(-1.3267e-13 -2.26121e-14 0)
(-2.74791e-14 -4.81959e-14 0)
(4.02533e-14 -8.63869e-14 0)
(2.36221e-14 -4.71612e-14 0)
(5.68081e-14 -1.00543e-13 0)
(1.46259e-14 -7.19309e-14 0)
(-7.4223e-15 -9.33306e-14 0)
(-8.16494e-14 -6.84547e-14 0)
(-7.64516e-14 -5.53235e-14 0)
(-3.62447e-14 -5.07694e-15 0)
(-6.07939e-14 -2.54684e-14 0)
(-4.31184e-14 2.73384e-15 0)
(3.20153e-14 -1.68442e-14 0)
(9.98398e-14 -2.28514e-14 0)
(9.25064e-14 5.58221e-14 0)
(-1.04639e-14 1.06837e-13 0)
(-6.2326e-14 5.71941e-14 0)
(4.57304e-14 2.06817e-14 0)
(3.87554e-14 -8.4343e-15 0)
(7.86834e-14 4.43536e-14 0)
(8.3279e-14 3.51978e-14 0)
(2.82776e-14 7.64098e-14 0)
(-1.45033e-14 1.46824e-14 0)
(-2.58229e-14 2.60412e-14 0)
(-9.92738e-14 8.5112e-14 0)
(-1.04432e-13 4.22124e-14 0)
(5.60411e-15 7.93737e-14 0)
(6.23761e-14 -4.22423e-15 0)
(4.33239e-14 1.79686e-14 0)
(7.02576e-14 -6.89818e-14 0)
(-2.69612e-14 -1.00902e-13 0)
(-1.03454e-13 -1.72624e-13 0)
(-8.3116e-14 -6.96517e-14 0)
(-7.5714e-14 3.09554e-14 0)
(-2.59944e-14 2.91822e-14 0)
(2.19025e-14 1.09562e-14 0)
(4.51879e-14 -1.91659e-14 0)
(7.28097e-14 -1.12141e-14 0)
(9.25377e-14 -4.61182e-14 0)
(6.26413e-14 -2.59381e-14 0)
(2.55569e-14 6.50574e-14 0)
(-5.96408e-14 1.08179e-13 0)
(-7.48363e-14 1.06424e-13 0)
(1.84107e-14 -5.08139e-14 0)
(5.39075e-14 -1.41218e-13 0)
(-7.02295e-15 -1.51401e-13 0)
(2.10375e-14 -1.06199e-13 0)
(2.77326e-15 -5.20961e-14 0)
(-3.03365e-14 -7.79928e-14 0)
(-4.65202e-14 -2.23071e-14 0)
(-2.52391e-14 -2.05641e-14 0)
(2.84411e-14 -7.67021e-14 0)
(2.64566e-14 -6.52805e-14 0)
(-8.30247e-15 -3.36258e-14 0)
(4.99703e-14 -7.50616e-14 0)
(9.2595e-14 -4.3049e-14 0)
(-2.33927e-14 -1.06425e-13 0)
(-1.8477e-13 1.71457e-14 0)
(-5.5972e-14 -6.33682e-15 0)
(3.77925e-14 2.67955e-14 0)
(8.15191e-14 1.5859e-14 0)
(8.67714e-14 6.02158e-14 0)
(4.46476e-14 9.94993e-14 0)
(9.6479e-14 1.64051e-14 0)
(3.20747e-14 -1.43485e-14 0)
(-1.11288e-13 -2.01407e-14 0)
(-6.90891e-14 -6.87842e-15 0)
(2.90226e-14 -3.00168e-15 0)
(3.07784e-14 -7.21078e-14 0)
(4.27119e-14 -1.49951e-13 0)
(7.83176e-14 -7.88001e-14 0)
(-2.6693e-14 1.78012e-13 0)
(1.19949e-14 2.24314e-13 0)
(4.29598e-14 1.17832e-13 0)
(3.59325e-14 8.00602e-14 0)
(-5.96537e-15 4.39886e-14 0)
(8.14628e-14 -6.03743e-14 0)
(1.40536e-13 -7.56511e-14 0)
(1.18971e-13 4.5479e-14 0)
(5.90614e-15 1.25e-13 0)
(-7.86163e-14 4.95471e-14 0)
(-1.39471e-13 3.38145e-14 0)
(-3.98458e-14 1.06935e-13 0)