/*--------------------------------*- C++ -*----------------------------------*\
  =========                 |
  \\      /  F ield         | OpenFOAM: The Open Source CFD Toolbox
   \\    /   O peration     | Website:  https://openfoam.org
    \\  /    A nd           | Version:  13
     \\/     M anipulation  |
\*---------------------------------------------------------------------------*/
FoamFile
{
    format      ascii;
    class       surfaceScalarField;
    location    "0.0021";
    object      phi;
}
// * * * * * * * * * * * * * * * * * * * * * * * * * * * * * * * * * * * * * //

dimensions      [1 0 -1 0 0 0 0];

internalField   nonuniform List<scalar> 
66300
(
6.1136
0.0295143
5.83182
0.0159312
1.11846
0.00050307
0.828483
0.000408221
0.826567
0.000230183
0.825488
7.25945e-05
0.823416
6.20216e-05
0.821184
-1.26585e-05
0.819033
-3.61075e-05
0.816952
-4.19246e-05
0.81495
-3.70346e-05
0.813045
-2.88824e-05
0.811232
-1.98932e-05
0.80949
-1.26001e-05
0.807781
-8.11292e-06
0.806061
-6.09584e-06
0.804297
-5.63726e-06
0.802479
-5.97793e-06
0.80063
-6.36781e-06
0.798783
-6.59764e-06
0.796963
-6.68061e-06
0.795193
-6.67803e-06
0.793485
-6.63703e-06
0.791847
-6.58639e-06
0.790272
-6.53976e-06
0.788744
-6.50086e-06
0.787247
-6.4694e-06
0.78578
-6.4382e-06
0.78437
-6.40552e-06
0.782993
-6.43201e-06
0.781361
-6.59108e-06
0.778406
-6.77071e-06
0.770164
-6.79906e-06
0.741513
-6.62157e-06
0.641656
-6.10577e-06
0.380162
-4.66615e-06
0.0813248
-1.9589e-06
0.00304091
-2.87761e-07
1.30586e-05
-9.45308e-09
4.80183e-09
-3.49216e-11
3.14693e-13
-9.4369e-15
-4.44089e-16
6.66134e-16
-6.10623e-16
1.16573e-15
-2.22045e-16
1.05471e-15
-4.996e-16
1.05471e-15
6.10623e-16
7.21645e-16
4.44089e-16
5.55112e-17
3.88578e-16
5.55112e-17
7.21645e-16
2.22045e-16
1.66533e-16
1.11022e-16
-2.77556e-16
4.44089e-16
-8.88178e-16
6.10623e-16
-1.05471e-15
4.44089e-16
-5.55112e-16
4.996e-16
3.33067e-16
4.996e-16
1.66533e-16
-3.88578e-16
-2.77556e-16
-3.33067e-16
8.32667e-16
-1.11022e-16
-7.21645e-16
0
1.11022e-16
7.77156e-16
-8.88178e-16
-1.66533e-16
-8.32667e-16
7.77156e-16
-6.66134e-16
-1.66533e-16
-6.66134e-16
3.33067e-16
-5.55112e-16
2.77556e-16
0
3.88578e-16
-4.996e-16
3.33067e-16
-2.22045e-16
7.21645e-16
1.66533e-16
6.66134e-16
5.55112e-17
2.77556e-16
-1.44329e-15
-1.66533e-16
-6.66134e-16
1.66533e-16
-1.94289e-15
-2.22045e-16
-1.05471e-15
6.66134e-16
-1.05471e-15
6.66134e-16
-6.66134e-16
1.11022e-15
-3.88578e-16
8.88178e-16
-5.55112e-16
8.88178e-16
-3.33067e-16
1.66533e-16
-4.44089e-16
-1.11022e-16
-5.55112e-16
1.11022e-16
2.77556e-16
3.88578e-16
-6.10623e-16
-4.996e-16
5.55112e-17
4.996e-16
9.99201e-16
4.44089e-16
-1.11022e-16
6.66134e-16
7.77156e-16
6.10623e-16
-4.996e-16
-2.77556e-16
-5.55112e-16
5.55112e-17
-2.77556e-16
2.22045e-16
2.22045e-16
3.88578e-16
-2.77556e-16
2.77556e-16
-2.77556e-16
5.55112e-16
-6.10623e-16
4.996e-16
-8.88178e-16
6.66134e-16
-1.4988e-15
7.21645e-16
-7.21645e-16
6.10623e-16
-4.44089e-16
8.32667e-16
-5.55112e-16
8.32667e-16
5.55112e-16
7.21645e-16
3.88578e-16
4.996e-16
3.88578e-16
6.10623e-16
1.05471e-15
6.66134e-16
-2.22045e-16
5.55112e-17
2.22045e-16
7.77156e-16
1.66533e-16
7.21645e-16
-1.11022e-16
7.77156e-16
7.21645e-16
3.33067e-16
7.21645e-16
9.4369e-16
1.11022e-15
7.77156e-16
1.16573e-15
7.77156e-16
1.05471e-15
5.55112e-16
6.66134e-16
1.16573e-15
3.88578e-16
6.10623e-16
6.10623e-16
5.55112e-17
1.72085e-15
1.11022e-16
1.16573e-15
-5.55112e-17
6.10623e-16
1.11022e-16
-5.55112e-17
-5.55112e-17
-5.55112e-17
0
-1.05471e-15
-5.55112e-16
-9.99201e-16
3.33067e-16
-2.77556e-16
8.88178e-16
-3.88578e-16
2.77556e-16
-4.44089e-16
3.88578e-16
-4.996e-16
2.77556e-16
-2.77556e-16
2.77556e-16
0
3.33067e-16
1.66533e-16
6.10623e-16
0
4.44089e-16
1.66533e-16
4.996e-16
4.996e-16
8.32667e-16
4.44089e-16
4.996e-16
3.88578e-16
6.10623e-16
6.66134e-16
1.05471e-15
-3.88578e-16
1.44329e-15
2.77556e-16
8.32667e-16
-1.66533e-16
8.32667e-16
3.33067e-16
1.33227e-15
1.22125e-15
8.88178e-16
2.05391e-15
8.88178e-16
-1.11022e-16
4.44089e-16
3.33067e-16
2.22045e-16
-8.32667e-16
-6.10623e-16
2.77556e-16
0
-3.88578e-16
-6.10623e-16
-1.22125e-15
-5.55112e-16
-3.33067e-16
1.66533e-16
-4.996e-16
-3.88578e-16
-1.55431e-15
-3.88578e-16
-1.60982e-15
-4.44089e-16
-3.33067e-16
2.77556e-16
7.77156e-16
5.55112e-16
-7.21645e-16
7.77156e-16
-2.77556e-16
7.77156e-16
-1.66533e-16
3.33067e-16
1.11022e-16
4.44089e-16
2.77556e-16
4.996e-16
4.44089e-16
8.32667e-16
7.77156e-16
7.77156e-16
8.32667e-16
1.72085e-15
1.05471e-15
1.22125e-15
5.55112e-17
1.16573e-15
4.996e-16
1.16573e-15
1.22125e-15
9.4369e-16
1.55431e-15
1.27676e-15
8.88178e-16
6.117
0.0728654
5.83001
0.0481109
1.11775
0.0103563
0.828242
0.00120478
0.826511
0.000625949
0.825574
0.000311391
0.823645
9.6813e-05
0.821428
-6.44966e-06
0.819269
-4.15802e-05
0.817192
-6.42617e-05
0.815183
-5.54386e-05
0.813258
-3.82633e-05
0.811423
-2.35215e-05
0.809662
-1.31502e-05
0.807939
-7.36102e-06
0.806208
-4.90327e-06
0.804436
-4.57031e-06
0.802611
-5.09743e-06
0.800756
-5.67383e-06
0.798901
-6.0638e-06
0.797074
-6.21847e-06
0.795297
-6.22285e-06
0.793582
-6.16143e-06
0.791936
-6.08668e-06
0.790354
-6.02368e-06
0.788819
-5.97735e-06
0.787315
-5.94106e-06
0.785841
-5.9097e-06
0.784423
-5.90149e-06
0.78304
-5.97039e-06
0.781401
-6.10772e-06
0.778438
-6.20001e-06
0.770189
-6.18977e-06
0.74153
-6.03549e-06
0.641666
-5.44341e-06
0.380167
-3.72624e-06
0.0813265
-1.43576e-06
0.00304101
-1.76273e-07
1.30591e-05
-4.49458e-09
4.80207e-09
-1.55989e-11
3.15525e-13
-4.44089e-15
-3.88578e-16
1.22125e-15
-6.10623e-16
1.38778e-15
-2.77556e-16
1.83187e-15
-4.996e-16
8.32667e-16
2.22045e-16
9.4369e-16
3.33067e-16
4.996e-16
4.996e-16
8.88178e-16
6.10623e-16
9.99201e-16
4.996e-16
1.60982e-15
1.66533e-16
1.38778e-15
-8.32667e-16
1.33227e-15
-1.16573e-15
1.05471e-15
-6.10623e-16
8.32667e-16
-4.44089e-16
3.33067e-16
2.77556e-16
2.77556e-16
-5.55112e-17
0
8.88178e-16
3.33067e-16
1.66533e-16
-1.66533e-16
-6.66134e-16
0
-4.996e-16
6.66134e-16
-1.83187e-15
2.77556e-16
-7.21645e-16
9.4369e-16
-5.55112e-16
9.99201e-16
-4.44089e-16
1.22125e-15
-4.996e-16
1.27676e-15
-2.22045e-16
1.44329e-15
-2.22045e-16
1.4988e-15
-5.55112e-17
1.83187e-15
-5.55112e-16
8.32667e-16
-1.27676e-15
1.11022e-16
-1.16573e-15
7.77156e-16
-1.22125e-15
8.32667e-16
-1.27676e-15
8.32667e-16
-6.66134e-16
1.60982e-15
-8.88178e-16
1.66533e-15
-3.88578e-16
2.10942e-15
-9.99201e-16
1.77636e-15
-7.21645e-16
1.22125e-15
-4.996e-16
8.32667e-16
-6.66134e-16
4.44089e-16
-6.66134e-16
4.44089e-16
5.55112e-17
4.996e-16
0
7.21645e-16
1.33227e-15
1.05471e-15
1.11022e-16
1.11022e-16
-1.66533e-16
2.77556e-16
0
3.88578e-16
-4.996e-16
6.66134e-16
-1.66533e-16
1.16573e-15
1.11022e-16
1.22125e-15
-1.11022e-16
1.60982e-15
-2.77556e-16
1.33227e-15
-4.996e-16
1.77636e-15
-1.16573e-15
1.4988e-15
-1.22125e-15
1.72085e-15
-4.996e-16
1.4988e-15
-4.44089e-16
1.22125e-15
-4.996e-16
1.11022e-15
0
1.60982e-15
5.55112e-16
1.4988e-15
4.996e-16
1.4988e-15
4.44089e-16
1.44329e-15
6.66134e-16
1.4988e-15
2.77556e-16
4.996e-16
5.55112e-17
4.44089e-16
-2.22045e-16
-5.55112e-17
1.22125e-15
8.32667e-16
8.88178e-16
4.996e-16
9.4369e-16
1.05471e-15
1.05471e-15
1.44329e-15
1.38778e-15
9.4369e-16
4.996e-16
6.66134e-16
-1.66533e-16
-4.44089e-16
4.44089e-16
2.22045e-16
1.33227e-15
4.44089e-16
1.44329e-15
7.77156e-16
4.44089e-16
-5.55112e-16
-2.77556e-16
8.88178e-16
-5.55112e-16
5.55112e-16
-3.33067e-16
6.66134e-16
-4.996e-16
2.22045e-16
-6.10623e-16
5.55112e-16
-4.996e-16
6.66134e-16
-3.88578e-16
7.77156e-16
-4.996e-16
4.996e-16
-1.66533e-16
8.88178e-16
5.55112e-17
8.32667e-16
1.66533e-16
8.32667e-16
-1.11022e-16
3.88578e-16
4.44089e-16
6.10623e-16
-1.11022e-16
2.77556e-16
6.66134e-16
1.16573e-15
8.32667e-16
1.16573e-15
8.32667e-16
1.83187e-15
-7.77156e-16
1.38778e-15
1.66533e-16
1.66533e-15
2.22045e-16
1.4988e-15
3.33067e-16
1.38778e-15
1.27676e-15
1.16573e-15
1.16573e-15
6.10623e-16
-5.55112e-16
7.77156e-16
0
7.77156e-16
-4.996e-16
8.32667e-16
-3.88578e-16
2.77556e-16
-4.44089e-16
2.22045e-16
-3.33067e-16
0
-6.10623e-16
-5.55112e-17
-8.88178e-16
-2.22045e-16
-1.38778e-15
1.11022e-16
-8.32667e-16
3.33067e-16
-5.55112e-17
2.22045e-16
8.32667e-16
6.10623e-16
-1.11022e-16
5.55112e-16
-1.05471e-15
2.77556e-16
-4.44089e-16
4.996e-16
1.66533e-16
9.4369e-16
7.21645e-16
1.22125e-15
9.99201e-16
1.22125e-15
1.88738e-15
1.44329e-15
6.66134e-16
1.16573e-15
8.88178e-16
1.33227e-15
5.55112e-16
1.27676e-15
1.66533e-16
5.55112e-16
1.4988e-15
9.4369e-16
1.05471e-15
9.4369e-16
1.11022e-15
6.10826
0.112747
5.75115
0.08356
1.09966
0.017692
0.827602
0.00192377
0.82607
0.00110545
0.82522
0.000631047
0.823455
0.000291368
0.821378
7.35412e-05
0.819276
-2.98054e-05
0.817204
-6.30141e-05
0.815204
-6.89003e-05
0.813281
-5.262e-05
0.81144
-3.29094e-05
0.809671
-1.81504e-05
0.807941
-9.3516e-06
0.806208
-5.20016e-06
0.804435
-4.11044e-06
0.80261
-4.2194e-06
0.800755
-4.74005e-06
0.7989
-5.33663e-06
0.797074
-5.70563e-06
0.795296
-5.83524e-06
0.793582
-5.84098e-06
0.791936
-5.79446e-06
0.790354
-5.73293e-06
0.788819
-5.68093e-06
0.787314
-5.64437e-06
0.785841
-5.63069e-06
0.784423
-5.66018e-06
0.783039
-5.73413e-06
0.7814
-5.80836e-06
0.778437
-5.84022e-06
0.770188
-5.80014e-06
0.741529
-5.60532e-06
0.641666
-5.08117e-06
0.380169
-3.47381e-06
0.0813277
-1.31656e-06
0.00304109
-1.60381e-07
1.30597e-05
-3.95692e-09
4.80239e-09
-1.27197e-11
3.15692e-13
-2.66454e-15
1.66533e-16
3.88578e-16
-7.77156e-16
9.4369e-16
-1.33227e-15
1.66533e-15
-4.996e-16
1.38778e-15
5.55112e-17
1.38778e-15
7.21645e-16
1.60982e-15
6.66134e-16
1.11022e-15
1.55431e-15
1.55431e-15
2.22045e-16
1.33227e-15
-2.77556e-16
1.83187e-15
-1.05471e-15
1.88738e-15
-1.27676e-15
1.83187e-15
-8.32667e-16
1.66533e-15
-1.66533e-16
1.66533e-15
1.11022e-16
1.44329e-15
-5.55112e-17
1.33227e-15
3.33067e-16
1.11022e-15
-1.66533e-16
1.11022e-15
0
1.33227e-15
-9.99201e-16
2.05391e-15
-1.05471e-15
1.66533e-15
-8.32667e-16
1.9984e-15
-6.66134e-16
2.27596e-15
-2.77556e-16
2.44249e-15
-1.11022e-16
2.05391e-15
-1.66533e-16
1.33227e-15
2.77556e-16
1.44329e-15
-1.4988e-15
1.33227e-15
-1.16573e-15
1.77636e-15
-8.32667e-16
1.22125e-15
-1.16573e-15
1.4988e-15
-6.66134e-16
1.55431e-15
-3.33067e-16
1.38778e-15
-1.05471e-15
9.99201e-16
-4.44089e-16
2.05391e-15
-1.05471e-15
1.94289e-15
-1.38778e-15
1.4988e-15
-9.99201e-16
1.72085e-15
-6.66134e-16
1.94289e-15
-6.66134e-16
1.66533e-15
-4.44089e-16
1.72085e-15
-1.66533e-16
1.83187e-15
1.11022e-16
2.22045e-15
3.88578e-16
1.94289e-15
4.44089e-16
1.83187e-15
-5.55112e-17
2.05391e-15
0
2.05391e-15
-1.11022e-16
1.9984e-15
1.11022e-16
2.38698e-15
7.77156e-16
2.27596e-15
-4.996e-16
1.22125e-15
3.33067e-16
1.77636e-15
-1.05471e-15
1.33227e-15
-8.88178e-16
1.4988e-15
-1.66533e-15
8.88178e-16
-1.16573e-15
1.60982e-15
-5.55112e-16
1.38778e-15
1.66533e-16
1.44329e-15
-1.66533e-16
1.77636e-15
5.55112e-16
1.72085e-15
5.55112e-16
1.83187e-15
5.55112e-16
1.44329e-15
-4.44089e-16
1.83187e-15
1.11022e-16
1.60982e-15
-3.33067e-16
1.44329e-15
5.55112e-17
1.44329e-15
5.55112e-16
1.44329e-15
1.66533e-15
8.88178e-16
1.55431e-15
7.21645e-16
4.996e-16
7.21645e-16
1.22125e-15
6.10623e-16
-4.996e-16
1.66533e-16
5.55112e-17
3.33067e-16
1.11022e-15
7.21645e-16
1.55431e-15
5.55112e-16
4.996e-16
1.11022e-16
1.33227e-15
7.21645e-16
-1.66533e-16
5.55112e-16
-4.44089e-16
5.55112e-16
-5.55112e-16
1.11022e-16
-2.22045e-16
2.77556e-16
-4.996e-16
5.55112e-17
-3.33067e-16
3.33067e-16
-7.77156e-16
-5.55112e-17
-1.66533e-16
5.55112e-16
-5.55112e-17
1.16573e-15
0
4.996e-16
-5.55112e-17
6.10623e-16
-1.11022e-16
8.32667e-16
5.55112e-16
1.16573e-15
8.32667e-16
1.27676e-15
5.55112e-16
1.11022e-15
1.16573e-15
1.88738e-15
2.77556e-16
2.05391e-15
-4.44089e-16
1.77636e-15
2.77556e-16
2.10942e-15
-5.55112e-17
1.60982e-15
1.11022e-16
1.60982e-15
8.32667e-16
1.55431e-15
9.99201e-16
1.16573e-15
-2.77556e-16
4.996e-16
-1.11022e-16
6.10623e-16
-7.77156e-16
8.32667e-16
-2.77556e-16
6.10623e-16
-9.4369e-16
-6.10623e-16
0
-5.55112e-16
-8.88178e-16
-1.16573e-15
-6.66134e-16
-5.55112e-16
-1.38778e-15
-8.32667e-16
-7.77156e-16
3.88578e-16
-5.55112e-17
1.33227e-15
5.55112e-16
1.05471e-15
-5.55112e-16
4.996e-16
-6.10623e-16
6.10623e-16
4.44089e-16
9.4369e-16
7.21645e-16
8.32667e-16
3.33067e-16
4.44089e-16
8.88178e-16
9.99201e-16
1.60982e-15
1.88738e-15
7.77156e-16
1.44329e-15
4.996e-16
1.27676e-15
0
1.05471e-15
4.996e-16
1.44329e-15
1.66533e-15
1.66533e-15
1.16573e-15
1.16573e-15
8.88178e-16
6.115
0.157099
5.63856
0.11497
1.07167
0.0234857
0.826563
0.00278295
0.825291
0.00171257
0.824566
0.00108717
0.823051
0.000602364
0.821195
0.000255045
0.81923
5.15825e-05
0.817219
-3.85506e-05
0.815229
-6.49782e-05
0.813308
-6.57358e-05
0.811462
-4.97813e-05
0.809685
-3.09128e-05
0.807947
-1.68671e-05
0.806209
-8.70394e-06
0.804434
-4.94031e-06
0.802609
-3.97955e-06
0.800753
-4.18132e-06
0.798899
-4.58995e-06
0.797073
-5.06882e-06
0.795296
-5.40457e-06
0.793581
-5.57411e-06
0.791936
-5.62735e-06
0.790353
-5.61657e-06
0.788818
-5.57042e-06
0.787314
-5.53568e-06
0.78584
-5.52587e-06
0.784422
-5.54883e-06
0.783039
-5.58774e-06
0.781399
-5.61376e-06
0.778436
-5.60563e-06
0.770187
-5.54934e-06
0.741529
-5.43616e-06
0.641667
-4.91116e-06
0.380171
-3.4924e-06
0.081329
-1.3374e-06
0.00304119
-1.63965e-07
1.30603e-05
-4.06021e-09
4.8027e-09
-1.29854e-11
3.16192e-13
-2.44249e-15
6.10623e-16
1.27676e-15
-4.44089e-16
2.16493e-15
-1.72085e-15
1.60982e-15
-8.32667e-16
1.83187e-15
1.11022e-16
1.94289e-15
4.44089e-16
2.498e-15
1.05471e-15
2.05391e-15
1.27676e-15
2.38698e-15
1.05471e-15
1.72085e-15
-1.11022e-16
1.88738e-15
-1.27676e-15
1.55431e-15
-1.38778e-15
2.22045e-15
-8.88178e-16
1.9984e-15
5.55112e-17
2.33147e-15
0
1.88738e-15
-1.11022e-16
2.33147e-15
5.55112e-16
2.33147e-15
-1.11022e-16
2.38698e-15
2.77556e-16
2.60902e-15
-1.22125e-15
2.27596e-15
-8.88178e-16
2.77556e-15
-6.66134e-16
2.66454e-15
-1.11022e-16
2.94209e-15
-1.16573e-15
2.05391e-15
-6.66134e-16
3.10862e-15
-2.77556e-16
2.55351e-15
4.996e-16
2.27596e-15
-1.16573e-15
1.77636e-15
-1.44329e-15
2.05391e-15
-6.66134e-16
1.72085e-15
-7.77156e-16
1.66533e-15
-9.4369e-16
1.77636e-15
-3.88578e-16
1.72085e-15
-1.66533e-16
2.66454e-15
-1.66533e-16
2.83107e-15
-1.83187e-15
2.22045e-15
-1.4988e-15
2.498e-15
-8.88178e-16
2.83107e-15
-9.4369e-16
3.21965e-15
-5.55112e-16
2.88658e-15
-4.44089e-16
2.9976e-15
1.66533e-16
2.9976e-15
1.11022e-16
3.44169e-15
4.44089e-16
3.21965e-15
5.55112e-16
3.21965e-15
2.22045e-16
3.4972e-15
-1.11022e-16
2.72005e-15
2.22045e-16
2.60902e-15
-5.55112e-17
2.60902e-15
0
2.72005e-15
-2.22045e-16
2.77556e-15
2.77556e-16
2.94209e-15
-1.33227e-15
2.27596e-15
-1.11022e-15
2.33147e-15
-1.22125e-15
2.38698e-15
-1.11022e-15
2.16493e-15
-2.77556e-16
2.16493e-15
5.55112e-16
1.9984e-15
-2.77556e-16
1.4988e-15
8.88178e-16
2.16493e-15
-1.11022e-16
1.38778e-15
9.99201e-16
1.88738e-15
-4.44089e-16
1.77636e-15
0
1.66533e-15
0
1.66533e-15
-5.55112e-17
1.55431e-15
4.44089e-16
1.4988e-15
1.05471e-15
1.44329e-15
1.83187e-15
1.22125e-15
0
9.99201e-16
9.99201e-16
1.4988e-15
5.55112e-17
1.55431e-15
2.77556e-16
1.66533e-15
6.10623e-16
1.72085e-15
1.4988e-15
1.38778e-15
1.44329e-15
1.38778e-15
9.99201e-16
7.77156e-16
-6.66134e-16
7.21645e-16
-7.21645e-16
8.88178e-16
-6.66134e-16
9.99201e-16
-2.77556e-16
8.88178e-16
-3.33067e-16
7.77156e-16
-4.996e-16
8.32667e-16
-1.11022e-16
6.66134e-16
4.44089e-16
8.32667e-16
-7.77156e-16
3.33067e-16
2.77556e-16
1.05471e-15
1.11022e-16
1.33227e-15
1.66533e-16
1.66533e-15
5.55112e-16
2.22045e-15
6.66134e-16
2.55351e-15
9.99201e-16
2.16493e-15
1.38778e-15
2.33147e-15
0
1.83187e-15
-5.55112e-16
1.66533e-15
-1.66533e-16
2.16493e-15
5.55112e-17
2.22045e-15
4.44089e-16
2.27596e-15
4.996e-16
2.05391e-15
4.44089e-16
1.44329e-15
-1.11022e-16
1.16573e-15
4.996e-16
1.33227e-15
-1.05471e-15
8.88178e-16
-1.11022e-15
1.11022e-15
-1.22125e-15
8.88178e-16
-5.55112e-16
7.77156e-16
-4.44089e-16
3.88578e-16
-4.44089e-16
3.88578e-16
-2.77556e-16
6.66134e-16
3.88578e-16
9.99201e-16
-7.21645e-16
6.66134e-16
3.88578e-16
1.55431e-15
-3.88578e-16
1.77636e-15
0
1.72085e-15
2.22045e-16
2.05391e-15
3.88578e-16
2.66454e-15
8.32667e-16
1.72085e-15
1.77636e-15
1.60982e-15
9.4369e-16
1.44329e-15
2.77556e-16
1.4988e-15
5.55112e-16
1.77636e-15
4.996e-16
1.72085e-15
7.21645e-16
2.44249e-15
8.32667e-16
1.66533e-15
6.66134e-16
7.77156e-16
3.33067e-16
6.12548
0.198773
5.46529
0.144572
1.03554
0.0275344
0.825187
0.00385968
0.824241
0.00247102
0.823661
0.001685
0.822429
0.00104778
0.820843
0.000557618
0.819075
0.000230701
0.817188
4.23492e-05
0.815251
-4.0268e-05
0.813339
-6.30995e-05
0.811494
-6.49564e-05
0.80971
-4.92673e-05
0.807962
-3.08401e-05
0.806215
-1.68421e-05
0.804434
-8.46341e-06
0.802608
-4.88546e-06
0.800752
-4.2516e-06
0.798898
-3.90941e-06
0.797072
-4.39057e-06
0.795295
-4.93025e-06
0.793581
-5.29914e-06
0.791935
-5.48973e-06
0.790353
-5.54613e-06
0.788818
-5.5318e-06
0.787314
-5.49118e-06
0.78584
-5.4726e-06
0.784422
-5.47366e-06
0.783038
-5.48184e-06
0.781399
-5.4833e-06
0.778436
-5.48173e-06
0.770187
-5.47243e-06
0.741529
-5.35404e-06
0.641668
-4.87301e-06
0.380174
-3.49776e-06
0.0813303
-1.34218e-06
0.00304128
-1.64474e-07
1.3061e-05
-4.07667e-09
4.80302e-09
-1.30834e-11
3.17468e-13
-2.55351e-15
7.21645e-16
4.44089e-16
-9.4369e-16
1.94289e-15
-1.4988e-15
1.38778e-15
-5.55112e-16
2.498e-15
6.66134e-16
2.33147e-15
1.66533e-16
2.27596e-15
1.16573e-15
2.27596e-15
9.99201e-16
1.94289e-15
5.55112e-16
1.05471e-15
-2.22045e-16
1.22125e-15
-6.10623e-16
9.4369e-16
-1.66533e-15
1.33227e-15
-6.66134e-16
2.38698e-15
-4.996e-16
2.27596e-15
1.66533e-16
2.60902e-15
0
2.38698e-15
8.88178e-16
2.498e-15
8.32667e-16
2.16493e-15
-5.55112e-17
1.77636e-15
-8.88178e-16
1.60982e-15
-1.11022e-15
2.22045e-15
-6.10623e-16
2.72005e-15
-9.4369e-16
2.38698e-15
-3.33067e-16
2.33147e-15
-8.32667e-16
2.44249e-15
-7.77156e-16
2.38698e-15
5.55112e-17
2.60902e-15
-1.16573e-15
1.4988e-15
-1.72085e-15
1.72085e-15
-9.99201e-16
1.77636e-15
-6.66134e-16
2.05391e-15
-9.4369e-16
1.4988e-15
7.21645e-16
1.77636e-15
0
1.66533e-15
-6.66134e-16
2.33147e-15
-1.55431e-15
2.44249e-15
-1.11022e-15
2.77556e-15
-2.22045e-16
3.10862e-15
-1.27676e-15
2.88658e-15
-6.10623e-16
2.83107e-15
-3.88578e-16
3.16414e-15
3.88578e-16
3.27516e-15
-3.33067e-16
3.44169e-15
4.996e-16
3.38618e-15
8.88178e-16
3.38618e-15
-3.88578e-16
2.72005e-15
-3.88578e-16
2.44249e-15
3.88578e-16
2.498e-15
-2.22045e-16
1.77636e-15
5.55112e-17
2.498e-15
0
2.33147e-15
-1.11022e-16
1.88738e-15
-1.16573e-15
2.05391e-15
-8.32667e-16
2.38698e-15
-1.77636e-15
1.94289e-15
-1.22125e-15
2.27596e-15
-5.55112e-16
2.27596e-15
1.11022e-16
2.44249e-15
3.33067e-16
2.05391e-15
2.77556e-16
2.27596e-15
4.44089e-16
2.27596e-15
7.21645e-16
1.88738e-15
-3.88578e-16
1.11022e-15
1.11022e-16
1.66533e-15
-1.11022e-16
1.44329e-15
-1.11022e-16
1.4988e-15
2.22045e-16
1.55431e-15
8.88178e-16
1.83187e-15
1.4988e-15
2.05391e-15
4.44089e-16
1.94289e-15
1.11022e-15
2.16493e-15
5.55112e-17
1.33227e-15
3.33067e-16
2.44249e-15
6.66134e-16
1.94289e-15
1.4988e-15
1.4988e-15
4.996e-16
1.05471e-15
9.4369e-16
1.11022e-15
-3.33067e-16
7.77156e-16
-6.66134e-16
5.55112e-16
-5.55112e-16
1.16573e-15
-3.88578e-16
8.32667e-16
-4.44089e-16
9.4369e-16
-4.44089e-16
8.32667e-16
-2.22045e-16
6.66134e-16
-1.11022e-16
9.4369e-16
1.11022e-16
9.99201e-16
4.996e-16
1.05471e-15
2.77556e-16
1.11022e-15
8.32667e-16
2.38698e-15
1.38778e-15
2.66454e-15
2.22045e-16
2.10942e-15
1.44329e-15
2.66454e-15
7.77156e-16
2.10942e-15
-2.22045e-16
1.66533e-15
-2.22045e-16
1.16573e-15
0
1.05471e-15
0
9.99201e-16
5.55112e-17
1.38778e-15
-3.88578e-16
9.99201e-16
1.11022e-16
6.66134e-16
-5.55112e-17
5.55112e-16
5.55112e-17
8.88178e-16
-6.66134e-16
4.996e-16
-1.4988e-15
9.4369e-16
-1.05471e-15
1.38778e-15
-6.66134e-16
1.05471e-15
-4.996e-16
1.11022e-15
-1.66533e-16
1.05471e-15
0
9.4369e-16
0
1.22125e-15
0
1.94289e-15
3.88578e-16
1.72085e-15
-6.10623e-16
1.44329e-15
1.11022e-16
2.27596e-15
8.32667e-16
2.22045e-15
-4.996e-16
1.9984e-15
4.44089e-16
1.88738e-15
1.60982e-15
1.72085e-15
1.22125e-15
1.60982e-15
8.32667e-16
1.38778e-15
5.55112e-16
1.55431e-15
7.21645e-16
1.60982e-15
1.11022e-16
1.05471e-15
2.22045e-16
6.10623e-16
3.88578e-16
6.66134e-16
4.44089e-16
6.14816
0.239683
5.23472
0.169997
0.995924
0.0305342
0.823472
0.00525315
0.822909
0.00350209
0.822484
0.00243082
0.821558
0.00163994
0.820277
0.00100043
0.818754
0.000529804
0.817048
0.000217118
0.815226
3.66184e-05
0.813362
-4.25663e-05
0.811524
-6.31731e-05
0.809742
-6.53938e-05
0.807987
-4.91863e-05
0.80623
-3.09293e-05
0.80444
-1.69674e-05
0.802608
-8.46863e-06
0.800751
-4.78049e-06
0.798897
-3.97041e-06
0.797071
-3.74595e-06
0.795294
-4.31717e-06
0.79358
-4.90971e-06
0.791935
-5.27939e-06
0.790353
-5.43453e-06
0.788818
-5.47571e-06
0.787314
-5.47183e-06
0.78584
-5.45009e-06
0.784422
-5.43058e-06
0.783038
-5.42589e-06
0.781399
-5.42254e-06
0.778436
-5.4237e-06
0.770187
-5.41357e-06
0.741529
-5.29549e-06
0.64167
-4.82665e-06
0.380176
-3.45918e-06
0.0813317
-1.32623e-06
0.00304137
-1.62521e-07
1.30616e-05
-4.03048e-09
4.80333e-09
-1.29453e-11
3.18079e-13
-2.60902e-15
4.996e-16
4.996e-16
-4.996e-16
1.27676e-15
-5.55112e-16
9.4369e-16
-4.996e-16
1.33227e-15
5.55112e-17
1.27676e-15
2.77556e-16
1.27676e-15
3.88578e-16
4.996e-16
4.996e-16
8.32667e-16
5.55112e-16
1.16573e-15
-3.33067e-16
9.99201e-16
1.11022e-16
1.44329e-15
-8.88178e-16
8.88178e-16
-6.10623e-16
1.60982e-15
-3.33067e-16
1.33227e-15
-5.55112e-17
1.05471e-15
2.22045e-16
8.32667e-16
3.88578e-16
1.66533e-15
3.88578e-16
1.27676e-15
-1.66533e-16
1.33227e-15
-3.88578e-16
1.22125e-15
-6.66134e-16
1.66533e-15
-7.21645e-16
2.10942e-15
-8.88178e-16
1.38778e-15
-5.55112e-16
8.32667e-16
-6.10623e-16
1.05471e-15
-6.10623e-16
9.4369e-16
-7.77156e-16
1.60982e-15
-1.16573e-15
1.11022e-15
-1.33227e-15
1.60982e-15
-7.77156e-16
1.72085e-15
-9.99201e-16
8.88178e-16
-1.11022e-15
1.44329e-15
4.44089e-16
1.72085e-15
4.996e-16
1.72085e-15
-3.88578e-16
2.10942e-15
-1.55431e-15
1.66533e-15
-1.11022e-15
2.55351e-15
-4.44089e-16
2.60902e-15
-1.4988e-15
2.498e-15
-5.55112e-17
3.21965e-15
-4.44089e-16
3.05311e-15
6.66134e-16
3.88578e-15
-2.22045e-16
2.44249e-15
7.21645e-16
3.10862e-15
1.11022e-16
2.10942e-15
-5.55112e-16
1.77636e-15
-3.88578e-16
1.72085e-15
-5.55112e-17
1.72085e-15
5.55112e-17
1.16573e-15
5.55112e-17
1.05471e-15
-6.10623e-16
1.38778e-15
-5.55112e-17
1.77636e-15
-8.32667e-16
1.4988e-15
-1.44329e-15
2.10942e-15
-1.60982e-15
1.66533e-15
-8.88178e-16
2.16493e-15
-4.996e-16
2.05391e-15
-1.11022e-16
2.22045e-15
4.996e-16
2.22045e-15
3.88578e-16
1.9984e-15
5.55112e-17
1.94289e-15
1.11022e-16
1.55431e-15
1.11022e-16
1.22125e-15
-1.11022e-16
1.33227e-15
-2.77556e-16
1.94289e-15
-2.22045e-16
1.44329e-15
9.4369e-16
1.77636e-15
1.22125e-15
2.22045e-15
1.66533e-15
2.38698e-15
2.22045e-16
1.9984e-15
4.996e-16
2.44249e-15
8.32667e-16
2.05391e-15
-2.77556e-16
1.83187e-15
1.11022e-16
1.27676e-15
1.27676e-15
1.05471e-15
4.996e-16
2.77556e-16
6.66134e-16
1.16573e-15
-3.88578e-16
6.10623e-16
-2.77556e-16
7.77156e-16
-9.4369e-16
5.55112e-16
-3.33067e-16
8.32667e-16
-4.44089e-16
5.55112e-16
-3.88578e-16
4.44089e-16
1.11022e-16
4.44089e-16
1.11022e-16
6.10623e-16
0
6.66134e-16
1.11022e-16
1.16573e-15
1.44329e-15
1.44329e-15
9.4369e-16
1.72085e-15
8.88178e-16
1.33227e-15
6.66134e-16
1.66533e-15
1.05471e-15
1.60982e-15
5.55112e-17
1.66533e-15
-9.4369e-16
9.4369e-16
-3.88578e-16
1.66533e-15
1.66533e-16
1.4988e-15
7.21645e-16
1.4988e-15
-2.77556e-16
6.66134e-16
-4.44089e-16
1.11022e-16
-1.11022e-16
3.33067e-16
5.55112e-17
1.11022e-16
0
8.88178e-16
-5.55112e-16
3.33067e-16
-1.11022e-15
7.77156e-16
-1.55431e-15
4.996e-16
-1.11022e-15
8.88178e-16
-4.44089e-16
7.77156e-16
-1.11022e-16
1.27676e-15
3.88578e-16
9.4369e-16
7.77156e-16
1.11022e-15
-3.33067e-16
6.10623e-16
5.55112e-17
1.83187e-15
4.996e-16
2.05391e-15
1.11022e-16
1.22125e-15
4.996e-16
1.16573e-15
-3.33067e-16
1.27676e-15
4.996e-16
1.60982e-15
1.44329e-15
1.77636e-15
1.05471e-15
1.66533e-15
1.11022e-15
1.72085e-15
7.21645e-16
9.99201e-16
3.33067e-16
6.66134e-16
-3.33067e-16
3.88578e-16
-2.77556e-16
7.77156e-16
3.33067e-16
8.32667e-16
1.22125e-15
6.18062
0.283584
4.93537
0.192537
0.955928
0.0324273
0.821133
0.00705132
0.820947
0.00495108
0.820937
0.00338416
0.820403
0.00235113
0.819458
0.00158319
0.818216
0.000964066
0.81674
0.000507939
0.815092
0.000204821
0.813338
3.04764e-05
0.811547
-4.52142e-05
0.809772
-6.38752e-05
0.80802
-6.60437e-05
0.806256
-4.9055e-05
0.804456
-3.09123e-05
0.802615
-1.69307e-05
0.800751
-8.42509e-06
0.798895
-4.75816e-06
0.79707
-3.8395e-06
0.795293
-3.66341e-06
0.79358
-4.23144e-06
0.791935
-4.83966e-06
0.790353
-5.22847e-06
0.788818
-5.40012e-06
0.787314
-5.43701e-06
0.78584
-5.44002e-06
0.784422
-5.41355e-06
0.783038
-5.3964e-06
0.781399
-5.38358e-06
0.778436
-5.37617e-06
0.770188
-5.35166e-06
0.74153
-5.22487e-06
0.641671
-4.75414e-06
0.380179
-3.40479e-06
0.081333
-1.30512e-06
0.00304147
-1.59877e-07
1.30622e-05
-3.96258e-09
4.80364e-09
-1.27181e-11
3.18356e-13
-2.498e-15
3.33067e-16
1.72085e-15
-5.55112e-16
1.22125e-15
-3.33067e-16
1.88738e-15
-5.55112e-16
1.33227e-15
-5.55112e-17
1.88738e-15
-3.33067e-16
1.11022e-15
1.11022e-15
8.88178e-16
7.21645e-16
5.55112e-16
2.77556e-16
1.22125e-15
-5.55112e-17
1.9984e-15
-4.996e-16
2.05391e-15
-4.996e-16
2.498e-15
-7.21645e-16
2.33147e-15
-6.66134e-16
1.72085e-15
1.66533e-16
1.44329e-15
6.10623e-16
1.38778e-15
1.11022e-16
1.16573e-15
1.11022e-16
1.38778e-15
-2.22045e-16
1.60982e-15
1.11022e-16
2.44249e-15
-2.77556e-16
1.77636e-15
-1.33227e-15
1.77636e-15
-1.4988e-15
1.33227e-15
-1.11022e-16
1.27676e-15
-9.4369e-16
1.11022e-15
-1.11022e-16
1.55431e-15
-1.11022e-15
1.44329e-15
-8.88178e-16
2.72005e-15
-1.38778e-15
2.10942e-15
-1.55431e-15
2.55351e-15
-8.88178e-16
1.44329e-15
-4.996e-16
1.66533e-15
6.10623e-16
1.88738e-15
6.10623e-16
1.60982e-15
-7.21645e-16
1.88738e-15
-6.66134e-16
3.05311e-15
-9.99201e-16
2.83107e-15
-8.32667e-16
3.27516e-15
-6.10623e-16
2.83107e-15
5.55112e-17
2.88658e-15
5.55112e-17
2.9976e-15
-5.55112e-16
3.21965e-15
1.11022e-16
3.10862e-15
-5.55112e-17
3.27516e-15
-7.77156e-16
2.88658e-15
-9.4369e-16
2.60902e-15
-2.22045e-16
2.44249e-15
-8.32667e-16
1.72085e-15
3.88578e-16
1.44329e-15
4.44089e-16
1.16573e-15
-3.33067e-16
1.16573e-15
0
1.94289e-15
-2.22045e-16
1.88738e-15
-1.77636e-15
1.27676e-15
-1.27676e-15
1.83187e-15
-9.4369e-16
2.16493e-15
-5.55112e-16
1.94289e-15
-1.66533e-16
2.44249e-15
2.22045e-16
2.22045e-15
1.11022e-16
2.44249e-15
-3.33067e-16
2.33147e-15
-3.33067e-16
2.05391e-15
1.11022e-16
2.498e-15
7.21645e-16
2.16493e-15
-6.66134e-16
1.22125e-15
-5.55112e-17
2.44249e-15
8.88178e-16
2.33147e-15
1.27676e-15
2.88658e-15
1.27676e-15
2.77556e-15
1.38778e-15
2.9976e-15
5.55112e-17
1.83187e-15
3.33067e-16
1.83187e-15
-7.21645e-16
9.4369e-16
-1.11022e-16
9.99201e-16
6.66134e-16
1.38778e-15
1.27676e-15
9.4369e-16
-1.11022e-16
6.10623e-16
-2.77556e-16
9.99201e-16
-6.10623e-16
8.32667e-16
-7.77156e-16
8.88178e-16
-7.77156e-16
9.99201e-16
-5.55112e-16
9.4369e-16
-3.88578e-16
1.33227e-15
1.11022e-16
1.38778e-15
2.22045e-16
1.60982e-15
8.32667e-16
1.77636e-15
6.66134e-16
1.94289e-15
1.16573e-15
2.498e-15
5.55112e-16
2.10942e-15
1.27676e-15
1.88738e-15
5.55112e-16
2.05391e-15
1.38778e-15
2.27596e-15
-5.55112e-17
1.94289e-15
-4.44089e-16
2.60902e-15
-4.44089e-16
2.88658e-15
-5.55112e-17
2.22045e-15
-6.66134e-16
1.33227e-15
-6.66134e-16
7.77156e-16
-3.88578e-16
5.55112e-16
5.55112e-17
1.11022e-15
7.77156e-16
1.05471e-15
-6.10623e-16
7.21645e-16
-3.88578e-16
1.60982e-15
-1.22125e-15
9.4369e-16
-1.05471e-15
1.38778e-15
-9.99201e-16
1.4988e-15
-5.55112e-17
1.27676e-15
-6.10623e-16
7.21645e-16
4.996e-16
1.38778e-15
2.77556e-16
1.11022e-15
9.4369e-16
1.60982e-15
2.22045e-16
1.44329e-15
-7.21645e-16
1.27676e-15
0
1.9984e-15
7.77156e-16
1.44329e-15
0
8.88178e-16
5.55112e-16
1.27676e-15
1.16573e-15
1.88738e-15
9.99201e-16
2.05391e-15
7.77156e-16
2.498e-15
5.55112e-17
1.88738e-15
-1.11022e-16
1.38778e-15
3.88578e-16
1.44329e-15
-2.77556e-16
1.22125e-15
6.66134e-16
1.72085e-15
2.33147e-15
6.21971
0.331235
4.57026
0.21195
0.91884
0.0339148
0.817935
0.00936525
0.817823
0.006936
0.819046
0.00472291
0.818911
0.00324188
0.818345
0.0022833
0.81742
0.00153373
0.816216
0.000929733
0.814794
0.000485908
0.81321
0.000191963
0.811527
2.40813e-05
0.809796
-4.72843e-05
0.80805
-6.43874e-05
0.806289
-6.59312e-05
0.804482
-4.89069e-05
0.80263
-3.07629e-05
0.800758
-1.676e-05
0.798896
-8.28751e-06
0.797069
-4.66719e-06
0.795292
-3.73635e-06
0.793578
-3.53149e-06
0.791934
-4.11717e-06
0.790352
-4.75465e-06
0.788818
-5.17212e-06
0.787314
-5.36669e-06
0.78584
-5.42289e-06
0.784422
-5.40728e-06
0.783038
-5.38127e-06
0.781399
-5.35615e-06
0.778436
-5.33234e-06
0.770188
-5.28606e-06
0.74153
-5.14901e-06
0.641672
-4.6777e-06
0.380181
-3.34812e-06
0.0813343
-1.28317e-06
0.00304156
-1.57166e-07
1.30628e-05
-3.89432e-09
4.80395e-09
-1.24939e-11
3.18023e-13
-2.10942e-15
6.10623e-16
1.9984e-15
-2.77556e-16
6.66134e-16
-4.996e-16
1.4988e-15
-1.66533e-16
8.88178e-16
-4.996e-16
9.99201e-16
-9.99201e-16
3.88578e-16
5.55112e-16
1.22125e-15
1.11022e-15
1.27676e-15
1.27676e-15
1.83187e-15
2.77556e-16
1.38778e-15
-2.22045e-16
1.27676e-15
-4.44089e-16
1.4988e-15
-1.16573e-15
1.11022e-15
-1.33227e-15
9.99201e-16
0
1.66533e-15
2.22045e-16
1.44329e-15
3.33067e-16
9.4369e-16
5.55112e-16
9.4369e-16
4.996e-16
1.11022e-15
-2.22045e-16
1.60982e-15
-2.77556e-16
1.05471e-15
-1.72085e-15
8.32667e-16
-1.60982e-15
1.22125e-15
-1.66533e-16
1.4988e-15
-6.66134e-16
1.38778e-15
-1.66533e-16
2.10942e-15
-1.11022e-16
2.16493e-15
-9.99201e-16
2.38698e-15
-1.22125e-15
1.88738e-15
-2.44249e-15
1.55431e-15
-1.38778e-15
2.33147e-15
-6.10623e-16
2.38698e-15
6.10623e-16
2.27596e-15
8.88178e-16
2.83107e-15
6.10623e-16
2.27596e-15
-6.10623e-16
2.66454e-15
-4.44089e-16
2.38698e-15
-9.99201e-16
2.27596e-15
-7.77156e-16
2.60902e-15
0
2.88658e-15
5.55112e-17
2.66454e-15
-4.44089e-16
2.72005e-15
5.55112e-17
2.83107e-15
0
2.60902e-15
-8.88178e-16
2.44249e-15
-9.4369e-16
1.9984e-15
-9.4369e-16
1.55431e-15
-1.38778e-15
1.16573e-15
5.55112e-17
1.83187e-15
5.55112e-16
1.88738e-15
5.55112e-16
2.05391e-15
-5.55112e-17
1.55431e-15
-8.88178e-16
1.60982e-15
-1.05471e-15
1.44329e-15
-1.05471e-15
1.88738e-15
-8.32667e-16
1.77636e-15