/*--------------------------------*- C++ -*----------------------------------*\
  =========                 |
  \\      /  F ield         | OpenFOAM: The Open Source CFD Toolbox
   \\    /   O peration     | Website:  https://openfoam.org
    \\  /    A nd           | Version:  13
     \\/     M anipulation  |
\*---------------------------------------------------------------------------*/
FoamFile
{
    format      ascii;
    class       volScalarField;
    location    "0.0021";
    object      Qdot;
}
// * * * * * * * * * * * * * * * * * * * * * * * * * * * * * * * * * * * * * //

dimensions      [1 -1 -3 0 0 0 0];

internalField   nonuniform List<scalar> 
33334
(
2.61399e+11
7.65322e+10
31.7402
0.0133043
0.0125625
0.0123902
0.0121942
0.0119852
0.0118365
0.011745
0.0115282
0.0112403
0.0110555
0.0108029
0.0106123
0.010385
0.0101969
0.0100562
0.00995748
0.00988479
0.00982187
0.00981518
0.00974024
0.0096506
0.00948813
0.00943125
0.00931214
0.00919487
0.00914255
0.0090412
0.00893504
0.00876651
0.00833776
0.00711563
0.0039379
0.000542328
7.09734e-06
1.93839e-07
1.12536e-07
1.11228e-07
1.11225e-07
1.11225e-07
1.11225e-07
1.11225e-07
1.11225e-07
1.11225e-07
1.11225e-07
1.11225e-07
1.11225e-07
1.11225e-07
1.11225e-07
1.11225e-07
1.11225e-07
1.11225e-07
1.11225e-07
1.11225e-07
1.11225e-07
1.11225e-07
1.11225e-07
1.11225e-07
1.11225e-07
1.11225e-07
1.11225e-07
1.11225e-07
1.11225e-07
1.11225e-07
1.11225e-07
1.11225e-07
1.11225e-07
1.11225e-07
1.11225e-07
1.11225e-07
1.11225e-07
1.11225e-07
1.11225e-07
1.11225e-07
1.11225e-07
1.11225e-07
1.11225e-07
1.11225e-07
1.11225e-07
1.11225e-07
1.11225e-07
1.11225e-07
1.11225e-07
1.11225e-07
1.11225e-07
1.11225e-07
1.11225e-07
1.11225e-07
1.11225e-07
1.11225e-07
1.11225e-07
1.11225e-07
1.11225e-07
1.11225e-07
1.11225e-07
1.11225e-07
1.11225e-07
1.11225e-07
1.11225e-07
1.11225e-07
1.11225e-07
1.11225e-07
1.11225e-07
1.11225e-07
1.11225e-07
1.11225e-07
1.11225e-07
1.11225e-07
1.11225e-07
1.11225e-07
1.11225e-07
1.11225e-07
1.11225e-07
1.11225e-07
1.11225e-07
1.11225e-07
1.11225e-07
1.11225e-07
1.11225e-07
1.11225e-07
1.11225e-07
1.11225e-07
1.11225e-07
1.11225e-07
1.11225e-07
1.11225e-07
1.11225e-07
1.11225e-07
1.11225e-07
1.11225e-07
1.11225e-07
1.11225e-07
1.11225e-07
1.11225e-07
1.11225e-07
1.11225e-07
1.11225e-07
1.11225e-07
1.11225e-07
1.11225e-07
1.11225e-07
1.11225e-07
1.11225e-07
1.11225e-07
1.11225e-07
1.11225e-07
1.11225e-07
1.11225e-07
1.11225e-07
1.11225e-07
1.11225e-07
1.11225e-07
1.11225e-07
1.11225e-07
1.11225e-07
1.11225e-07
1.11225e-07
1.11225e-07
1.11225e-07
1.11225e-07
1.11225e-07
1.11225e-07
1.11225e-07
1.11225e-07
1.11225e-07
2.63297e+11
7.60496e+10
31.4013
0.0132168
0.0125062
0.0123651
0.0121844
0.0119807
0.0118337
0.0117441
0.0115287
0.0112411
0.0110561
0.0108029
0.0106119
0.0103843
0.0101961
0.0100555
0.00995674
0.00988407
0.00982118
0.00981452
0.00973961
0.00965
0.00948756
0.0094307
0.00931162
0.00919437
0.00914208
0.00904075
0.00893463
0.00876617
0.0083375
0.00711546
0.00393785
0.000542336
7.09759e-06
1.93841e-07
1.12536e-07
1.11228e-07
1.11225e-07
1.11225e-07
1.11225e-07
1.11225e-07
1.11225e-07
1.11225e-07
1.11225e-07
1.11225e-07
1.11225e-07
1.11225e-07
1.11225e-07
1.11225e-07
1.11225e-07
1.11225e-07
1.11225e-07
1.11225e-07
1.11225e-07
1.11225e-07
1.11225e-07
1.11225e-07
1.11225e-07
1.11225e-07
1.11225e-07
1.11225e-07
1.11225e-07
1.11225e-07
1.11225e-07
1.11225e-07
1.11225e-07
1.11225e-07
1.11225e-07
1.11225e-07
1.11225e-07
1.11225e-07
1.11225e-07
1.11225e-07
1.11225e-07
1.11225e-07
1.11225e-07
1.11225e-07
1.11225e-07
1.11225e-07
1.11225e-07
1.11225e-07
1.11225e-07
1.11225e-07
1.11225e-07
1.11225e-07
1.11225e-07
1.11225e-07
1.11225e-07
1.11225e-07
1.11225e-07
1.11225e-07
1.11225e-07
1.11225e-07
1.11225e-07
1.11225e-07
1.11225e-07
1.11225e-07
1.11225e-07
1.11225e-07
1.11225e-07
1.11225e-07
1.11225e-07
1.11225e-07
1.11225e-07
1.11225e-07
1.11225e-07
1.11225e-07
1.11225e-07
1.11225e-07
1.11225e-07
1.11225e-07
1.11225e-07
1.11225e-07
1.11225e-07
1.11225e-07
1.11225e-07
1.11225e-07
1.11225e-07
1.11225e-07
1.11225e-07
1.11225e-07
1.11225e-07
1.11225e-07
1.11225e-07
1.11225e-07
1.11225e-07
1.11225e-07
1.11225e-07
1.11225e-07
1.11225e-07
1.11225e-07
1.11225e-07
1.11225e-07
1.11225e-07
1.11225e-07
1.11225e-07
1.11225e-07
1.11225e-07
1.11225e-07
1.11225e-07
1.11225e-07
1.11225e-07
1.11225e-07
1.11225e-07
1.11225e-07
1.11225e-07
1.11225e-07
1.11225e-07
1.11225e-07
1.11225e-07
1.11225e-07
1.11225e-07
1.11225e-07
1.11225e-07
1.11225e-07
1.11225e-07
1.11225e-07
1.11225e-07
1.11225e-07
1.11225e-07
1.11225e-07
1.11225e-07
1.11225e-07
1.11225e-07
2.92355e+11
6.75183e+10
22.3082
0.0129919
0.0124203
0.0123014
0.0121487
0.0119667
0.0118302
0.0117435
0.0115297
0.0112426
0.011057
0.0108031
0.0106114
0.0103834
0.010195
0.0100544
0.00995568
0.0098831
0.00982028
0.00981369
0.00973883
0.00964927
0.00948688
0.00943007
0.00931103
0.00919384
0.0091416
0.00904032
0.00893426
0.00876587
0.00833729
0.00711536
0.00393785
0.000542349
7.09784e-06
1.93843e-07
1.12536e-07
1.11228e-07
1.11225e-07
1.11225e-07
1.11225e-07
1.11225e-07
1.11225e-07
1.11225e-07
1.11225e-07
1.11225e-07
1.11225e-07
1.11225e-07
1.11225e-07
1.11225e-07
1.11225e-07
1.11225e-07
1.11225e-07
1.11225e-07
1.11225e-07
1.11225e-07
1.11225e-07
1.11225e-07
1.11225e-07
1.11225e-07
1.11225e-07
1.11225e-07
1.11225e-07
1.11225e-07
1.11225e-07
1.11225e-07
1.11225e-07
1.11225e-07
1.11225e-07
1.11225e-07
1.11225e-07
1.11225e-07
1.11225e-07
1.11225e-07
1.11225e-07
1.11225e-07
1.11225e-07
1.11225e-07
1.11225e-07
1.11225e-07
1.11225e-07
1.11225e-07
1.11225e-07
1.11225e-07
1.11225e-07
1.11225e-07
1.11225e-07
1.11225e-07
1.11225e-07
1.11225e-07
1.11225e-07
1.11225e-07
1.11225e-07
1.11225e-07
1.11225e-07
1.11225e-07
1.11225e-07
1.11225e-07
1.11225e-07
1.11225e-07
1.11225e-07
1.11225e-07
1.11225e-07
1.11225e-07
1.11225e-07
1.11225e-07
1.11225e-07
1.11225e-07
1.11225e-07
1.11225e-07
1.11225e-07
1.11225e-07
1.11225e-07
1.11225e-07
1.11225e-07
1.11225e-07
1.11225e-07
1.11225e-07
1.11225e-07
1.11225e-07
1.11225e-07
1.11225e-07
1.11225e-07
1.11225e-07
1.11225e-07
1.11225e-07
1.11225e-07
1.11225e-07
1.11225e-07
1.11225e-07
1.11225e-07
1.11225e-07
1.11225e-07
1.11225e-07
1.11225e-07
1.11225e-07
1.11225e-07
1.11225e-07
1.11225e-07
1.11225e-07
1.11225e-07
1.11225e-07
1.11225e-07
1.11225e-07
1.11225e-07
1.11225e-07
1.11225e-07
1.11225e-07
1.11225e-07
1.11225e-07
1.11225e-07
1.11225e-07
1.11225e-07
1.11225e-07
1.11225e-07
1.11225e-07
1.11225e-07
1.11225e-07
1.11225e-07
1.11225e-07
1.11225e-07
1.11225e-07
1.11225e-07
1.11225e-07
1.11225e-07
3.42877e+11
5.60764e+10
13.1156
0.0128763
0.0122981
0.0122087
0.0120872
0.0119336
0.0118174
0.0117417
0.0115312
0.0112452
0.0110593
0.0108043
0.0106117
0.0103831
0.0101944
0.0100537
0.00995499
0.00988248
0.00981973
0.00981321
0.00973841
0.00964891
0.00948655
0.00942979
0.00931078
0.00919363
0.00914142
0.00904017
0.00893415
0.0087658
0.00833726
0.00711537
0.00393789
0.000542363
7.0981e-06
1.93845e-07
1.12536e-07
1.11228e-07
1.11225e-07
1.11225e-07
1.11225e-07
1.11225e-07
1.11225e-07
1.11225e-07
1.11225e-07
1.11225e-07
1.11225e-07
1.11225e-07
1.11225e-07
1.11225e-07
1.11225e-07
1.11225e-07
1.11225e-07
1.11225e-07
1.11225e-07
1.11225e-07
1.11225e-07
1.11225e-07
1.11225e-07
1.11225e-07
1.11225e-07
1.11225e-07
1.11225e-07
1.11225e-07
1.11225e-07
1.11225e-07
1.11225e-07
1.11225e-07
1.11225e-07
1.11225e-07
1.11225e-07
1.11225e-07
1.11225e-07
1.11225e-07
1.11225e-07
1.11225e-07
1.11225e-07
1.11225e-07
1.11225e-07
1.11225e-07
1.11225e-07
1.11225e-07
1.11225e-07
1.11225e-07
1.11225e-07
1.11225e-07
1.11225e-07
1.11225e-07
1.11225e-07
1.11225e-07
1.11225e-07
1.11225e-07
1.11225e-07
1.11225e-07
1.11225e-07
1.11225e-07
1.11225e-07
1.11225e-07
1.11225e-07
1.11225e-07
1.11225e-07
1.11225e-07
1.11225e-07
1.11225e-07
1.11225e-07
1.11225e-07
1.11225e-07
1.11225e-07
1.11225e-07
1.11225e-07
1.11225e-07
1.11225e-07
1.11225e-07
1.11225e-07
1.11225e-07
1.11225e-07
1.11225e-07
1.11225e-07
1.11225e-07
1.11225e-07
1.11225e-07
1.11225e-07
1.11225e-07
1.11225e-07
1.11225e-07
1.11225e-07
1.11225e-07
1.11225e-07
1.11225e-07
1.11225e-07
1.11225e-07
1.11225e-07
1.11225e-07
1.11225e-07
1.11225e-07
1.11225e-07
1.11225e-07
1.11225e-07
1.11225e-07
1.11225e-07
1.11225e-07
1.11225e-07
1.11225e-07
1.11225e-07
1.11225e-07
1.11225e-07
1.11225e-07
1.11225e-07
1.11225e-07
1.11225e-07
1.11225e-07
1.11225e-07
1.11225e-07
1.11225e-07
1.11225e-07
1.11225e-07
1.11225e-07
1.11225e-07
1.11225e-07
1.11225e-07
1.11225e-07
1.11225e-07
1.11225e-07
1.11225e-07
1.11225e-07
4.3035e+11
4.13752e+10
6.34694
0.012579
0.012141
0.0120854
0.0119987
0.0118787
0.0117893
0.0117319
0.0115307
0.0112474
0.0110624
0.0108069
0.0106133
0.0103838
0.0101945
0.0100534
0.00995468
0.00988216
0.00981947
0.00981301
0.00973826
0.0096488
0.00948647
0.00942972
0.00931073
0.00919358
0.00914138
0.00904015
0.00893414
0.0087658
0.00833727
0.00711539
0.00393793
0.000542377
7.09835e-06
1.93847e-07
1.12536e-07
1.11228e-07
1.11225e-07
1.11225e-07
1.11225e-07
1.11225e-07
1.11225e-07
1.11225e-07
1.11225e-07
1.11225e-07
1.11225e-07
1.11225e-07
1.11225e-07
1.11225e-07
1.11225e-07
1.11225e-07
1.11225e-07
1.11225e-07
1.11225e-07
1.11225e-07
1.11225e-07
1.11225e-07
1.11225e-07
1.11225e-07
1.11225e-07
1.11225e-07
1.11225e-07
1.11225e-07
1.11225e-07
1.11225e-07
1.11225e-07
1.11225e-07
1.11225e-07
1.11225e-07
1.11225e-07
1.11225e-07
1.11225e-07
1.11225e-07
1.11225e-07
1.11225e-07
1.11225e-07
1.11225e-07
1.11225e-07
1.11225e-07
1.11225e-07
1.11225e-07
1.11225e-07
1.11225e-07
1.11225e-07
1.11225e-07
1.11225e-07
1.11225e-07
1.11225e-07
1.11225e-07
1.11225e-07
1.11225e-07
1.11225e-07
1.11225e-07
1.11225e-07
1.11225e-07
1.11225e-07
1.11225e-07
1.11225e-07
1.11225e-07
1.11225e-07
1.11225e-07
1.11225e-07
1.11225e-07
1.11225e-07
1.11225e-07
1.11225e-07
1.11225e-07
1.11225e-07
1.11225e-07
1.11225e-07
1.11225e-07
1.11225e-07
1.11225e-07
1.11225e-07
1.11225e-07
1.11225e-07
1.11225e-07
1.11225e-07
1.11225e-07
1.11225e-07
1.11225e-07
1.11225e-07
1.11225e-07
1.11225e-07
1.11225e-07
1.11225e-07
1.11225e-07
1.11225e-07
1.11225e-07
1.11225e-07
1.11225e-07
1.11225e-07
1.11225e-07
1.11225e-07
1.11225e-07
1.11225e-07
1.11225e-07
1.11225e-07
1.11225e-07
1.11225e-07
1.11225e-07
1.11225e-07
1.11225e-07
1.11225e-07
1.11225e-07
1.11225e-07
1.11225e-07
1.11225e-07
1.11225e-07
1.11225e-07
1.11225e-07
1.11225e-07
1.11225e-07
1.11225e-07
1.11225e-07
1.11225e-07
1.11225e-07
1.11225e-07
1.11225e-07
1.11225e-07
1.11225e-07
1.11225e-07
1.11225e-07
1.11225e-07
5.58087e+11
2.71108e+10
2.78708
0.0122185
0.0119421
0.0119296
0.0118799
0.0117968
0.0117981
0.0117066
0.0115223
0.0112473
0.0110648
0.0108102
0.0106161
0.0103856
0.0101953
0.0100537
0.00995463
0.00988203
0.00981932
0.00981289
0.00973819
0.00964876
0.00948645
0.00942972
0.00931073
0.00919358
0.00914138
0.00904015
0.00893414
0.0087658
0.00833728
0.00711541
0.00393796
0.000542391
7.09861e-06
1.93849e-07
1.12536e-07
1.11228e-07
1.11225e-07
1.11225e-07
1.11225e-07
1.11225e-07
1.11225e-07
1.11225e-07
1.11225e-07
1.11225e-07
1.11225e-07
1.11225e-07
1.11225e-07
1.11225e-07
1.11225e-07
1.11225e-07
1.11225e-07
1.11225e-07
1.11225e-07
1.11225e-07
1.11225e-07
1.11225e-07
1.11225e-07
1.11225e-07
1.11225e-07
1.11225e-07
1.11225e-07
1.11225e-07
1.11225e-07
1.11225e-07
1.11225e-07
1.11225e-07
1.11225e-07
1.11225e-07
1.11225e-07
1.11225e-07
1.11225e-07
1.11225e-07
1.11225e-07
1.11225e-07
1.11225e-07
1.11225e-07
1.11225e-07
1.11225e-07
1.11225e-07
1.11225e-07
1.11225e-07
1.11225e-07
1.11225e-07
1.11225e-07
1.11225e-07
1.11225e-07
1.11225e-07
1.11225e-07
1.11225e-07
1.11225e-07
1.11225e-07
1.11225e-07
1.11225e-07
1.11225e-07
1.11225e-07
1.11225e-07
1.11225e-07
1.11225e-07
1.11225e-07
1.11225e-07
1.11225e-07
1.11225e-07
1.11225e-07
1.11225e-07
1.11225e-07
1.11225e-07
1.11225e-07
1.11225e-07
1.11225e-07
1.11225e-07
1.11225e-07
1.11225e-07
1.11225e-07
1.11225e-07
1.11225e-07
1.11225e-07
1.11225e-07
1.11225e-07
1.11225e-07
1.11225e-07
1.11225e-07
1.11225e-07
1.11225e-07
1.11225e-07
1.11225e-07
1.11225e-07
1.11225e-07
1.11225e-07
1.11225e-07
1.11225e-07
1.11225e-07
1.11225e-07
1.11225e-07
1.11225e-07
1.11225e-07
1.11225e-07
1.11225e-07
1.11225e-07
1.11225e-07
1.11225e-07
1.11225e-07
1.11225e-07
1.11225e-07
1.11225e-07
1.11225e-07
1.11225e-07
1.11225e-07
1.11225e-07
1.11225e-07
1.11225e-07
1.11225e-07
1.11225e-07
1.11225e-07
1.11225e-07
1.11225e-07
1.11225e-07
1.11225e-07
1.11225e-07
1.11225e-07
1.11225e-07
1.11225e-07
1.11225e-07
1.11225e-07
7.41553e+11
1.54755e+10
1.16717
0.0118445
0.0117974
0.0117954
0.0117879
0.0118021
0.011721
0.0116595
0.0114986
0.0112396
0.0110649
0.0108127
0.0106194
0.0103885
0.0101973
0.0100547
0.00995496
0.00988204
0.00981923
0.00981277
0.0097381
0.00964871
0.00948644
0.00942972
0.00931073
0.00919359
0.00914138
0.00904015
0.00893414
0.0087658
0.00833728
0.00711543
0.00393799
0.000542404
7.09886e-06
1.93852e-07
1.12536e-07
1.11228e-07
1.11225e-07
1.11225e-07
1.11225e-07
1.11225e-07
1.11225e-07
1.11225e-07
1.11225e-07
1.11225e-07
1.11225e-07
1.11225e-07
1.11225e-07
1.11225e-07
1.11225e-07
1.11225e-07
1.11225e-07
1.11225e-07
1.11225e-07
1.11225e-07
1.11225e-07
1.11225e-07
1.11225e-07
1.11225e-07
1.11225e-07
1.11225e-07
1.11225e-07
1.11225e-07
1.11225e-07
1.11225e-07
1.11225e-07
1.11225e-07
1.11225e-07
1.11225e-07
1.11225e-07
1.11225e-07
1.11225e-07
1.11225e-07
1.11225e-07
1.11225e-07
1.11225e-07
1.11225e-07
1.11225e-07
1.11225e-07
1.11225e-07
1.11225e-07
1.11225e-07
1.11225e-07
1.11225e-07
1.11225e-07
1.11225e-07
1.11225e-07
1.11225e-07
1.11225e-07
1.11225e-07
1.11225e-07
1.11225e-07
1.11225e-07
1.11225e-07
1.11225e-07
1.11225e-07
1.11225e-07
1.11225e-07
1.11225e-07
1.11225e-07
1.11225e-07
1.11225e-07
1.11225e-07
1.11225e-07
1.11225e-07
1.11225e-07
1.11225e-07
1.11225e-07
1.11225e-07
1.11225e-07
1.11225e-07
1.11225e-07
1.11225e-07
1.11225e-07
1.11225e-07
1.11225e-07
1.11225e-07
1.11225e-07
1.11225e-07
1.11225e-07
1.11225e-07
1.11225e-07
1.11225e-07
1.11225e-07
1.11225e-07
1.11225e-07
1.11225e-07
1.11225e-07
1.11225e-07
1.11225e-07
1.11225e-07
1.11225e-07
1.11225e-07
1.11225e-07
1.11225e-07
1.11225e-07
1.11225e-07
1.11225e-07
1.11225e-07
1.11225e-07
1.11225e-07
1.11225e-07
1.11225e-07
1.11225e-07
1.11225e-07
1.11225e-07
1.11225e-07
1.11225e-07
1.11225e-07
1.11225e-07
1.11225e-07
1.11225e-07
1.11225e-07
1.11225e-07
1.11225e-07
1.11225e-07
1.11225e-07
1.11225e-07
1.11225e-07
1.11225e-07
1.11225e-07
1.11225e-07
1.11225e-07
1.11225e-07
9.82612e+11
7.48081e+09
0.500654
0.0114407
0.0115023
0.0116686
0.0117234
0.0117161
0.0116722
0.011586
0.0114539
0.0112174
0.0110579
0.010813
0.0106219
0.0103918
0.0102002
0.0100566
0.00995598
0.00988239
0.00981925
0.00981269
0.00973799
0.00964863
0.00948639
0.0094297
0.00931074
0.00919359
0.00914139
0.00904016
0.00893414
0.00876581
0.00833729
0.00711544
0.00393803
0.000542417
7.09912e-06
1.93854e-07
1.12536e-07
1.11228e-07
1.11225e-07
1.11225e-07
1.11225e-07
1.11225e-07
1.11225e-07
1.11225e-07
1.11225e-07
1.11225e-07
1.11225e-07
1.11225e-07
1.11225e-07
1.11225e-07
1.11225e-07
1.11225e-07
1.11225e-07
1.11225e-07
1.11225e-07
1.11225e-07
1.11225e-07
1.11225e-07
1.11225e-07
1.11225e-07
1.11225e-07
1.11225e-07
1.11225e-07
1.11225e-07
1.11225e-07
1.11225e-07
1.11225e-07
1.11225e-07
1.11225e-07
1.11225e-07
1.11225e-07
1.11225e-07
1.11225e-07
1.11225e-07
1.11225e-07
1.11225e-07
1.11225e-07
1.11225e-07
1.11225e-07
1.11225e-07
1.11225e-07
1.11225e-07
1.11225e-07
1.11225e-07
1.11225e-07
1.11225e-07
1.11225e-07
1.11225e-07
1.11225e-07
1.11225e-07
1.11225e-07
1.11225e-07
1.11225e-07
1.11225e-07
1.11225e-07
1.11225e-07
1.11225e-07
1.11225e-07
1.11225e-07
1.11225e-07
1.11225e-07
1.11225e-07
1.11225e-07
1.11225e-07
1.11225e-07
1.11225e-07
1.11225e-07
1.11225e-07
1.11225e-07
1.11225e-07
1.11225e-07
1.11225e-07
1.11225e-07
1.11225e-07
1.11225e-07
1.11225e-07
1.11225e-07
1.11225e-07
1.11225e-07
1.11225e-07
1.11225e-07
1.11225e-07
1.11225e-07
1.11225e-07
1.11225e-07
1.11225e-07
1.11225e-07
1.11225e-07
1.11225e-07
1.11225e-07
1.11225e-07
1.11225e-07
1.11225e-07
1.11225e-07
1.11225e-07
1.11225e-07
1.11225e-07
1.11225e-07
1.11225e-07
1.11225e-07
1.11225e-07
1.11225e-07
1.11225e-07
1.11225e-07
1.11225e-07
1.11225e-07
1.11225e-07
1.11225e-07
1.11225e-07
1.11225e-07
1.11225e-07
1.11225e-07
1.11225e-07
1.11225e-07
1.11225e-07
1.11225e-07
1.11225e-07
1.11225e-07
1.11225e-07
1.11225e-07
1.11225e-07
1.11225e-07
1.11225e-07
1.11225e-07
1.11225e-07
1.27072e+12
2.86322e+09
0.223892
0.0108587
0.0110451
0.0112792
0.011493
0.0115415
0.0115324
0.0114829
0.0113252
0.0111751
0.0110371
0.0108066
0.0106223
0.0103942
0.0102034
0.0100595
0.00995791
0.0098834
0.00981959
0.0098127
0.0097379
0.00964851
0.0094863
0.00942965
0.00931072
0.00919359
0.0091414
0.00904016
0.00893415
0.00876581
0.00833729
0.00711546
0.00393806
0.00054243
7.09936e-06
1.93856e-07
1.12536e-07
1.11228e-07
1.11225e-07
1.11225e-07
1.11225e-07
1.11225e-07
1.11225e-07
1.11225e-07
1.11225e-07
1.11225e-07
1.11225e-07
1.11225e-07
1.11225e-07
1.11225e-07
1.11225e-07
1.11225e-07
1.11225e-07
1.11225e-07
1.11225e-07
1.11225e-07
1.11225e-07
1.11225e-07
1.11225e-07
1.11225e-07
1.11225e-07
1.11225e-07
1.11225e-07
1.11225e-07
1.11225e-07
1.11225e-07
1.11225e-07
1.11225e-07
1.11225e-07
1.11225e-07
1.11225e-07
1.11225e-07
1.11225e-07
1.11225e-07
1.11225e-07
1.11225e-07
1.11225e-07
1.11225e-07
1.11225e-07
1.11225e-07
1.11225e-07
1.11225e-07
1.11225e-07
1.11225e-07
1.11225e-07
1.11225e-07
1.11225e-07
1.11225e-07
1.11225e-07
1.11225e-07
1.11225e-07
1.11225e-07
1.11225e-07
1.11225e-07
1.11225e-07
1.11225e-07
1.11225e-07
1.11225e-07
1.11225e-07
1.11225e-07
1.11225e-07
1.11225e-07
1.11225e-07
1.11225e-07
1.11225e-07
1.11225e-07
1.11225e-07
1.11225e-07
1.11225e-07
1.11225e-07
1.11225e-07
1.11225e-07
1.11225e-07
1.11225e-07
1.11225e-07
1.11225e-07
1.11225e-07
1.11225e-07
1.11225e-07
1.11225e-07
1.11225e-07
1.11225e-07
1.11225e-07
1.11225e-07
1.11225e-07
1.11225e-07
1.11225e-07
1.11225e-07
1.11225e-07
1.11225e-07
1.11225e-07
1.11225e-07
1.11225e-07
1.11225e-07
1.11225e-07
1.11225e-07
1.11225e-07
1.11225e-07
1.11225e-07
1.11225e-07
1.11225e-07
1.11225e-07
1.11225e-07
1.11225e-07
1.11225e-07
1.11225e-07
1.11225e-07
1.11225e-07
1.11225e-07
1.11225e-07
1.11225e-07
1.11225e-07
1.11225e-07
1.11225e-07
1.11225e-07
1.11225e-07
1.11225e-07
1.11225e-07
1.11225e-07
1.11225e-07
1.11225e-07
1.11225e-07
1.11225e-07
1.11225e-07
1.11225e-07
1.51066e+12
8.75558e+08
0.107852
0.010293
0.0105714
0.0109061
0.0111198
0.0112615
0.0113047
0.0112896
0.0112269
0.0111086
0.0109971
0.0107871
0.0106164
0.0103947
0.0102058
0.0100627
0.00996071
0.00988531
0.0098206
0.00981303
0.00973789
0.00964841
0.00948618
0.00942956
0.00931066
0.00919357
0.0091414
0.00904017
0.00893416
0.00876582
0.0083373
0.00711547
0.00393809
0.000542442
7.0996e-06
1.93858e-07
1.12536e-07
1.11228e-07
1.11225e-07
1.11225e-07
1.11225e-07
1.11225e-07
1.11225e-07
1.11225e-07
1.11225e-07
1.11225e-07
1.11225e-07
1.11225e-07
1.11225e-07
1.11225e-07
1.11225e-07
1.11225e-07
1.11225e-07
1.11225e-07
1.11225e-07
1.11225e-07
1.11225e-07
1.11225e-07
1.11225e-07
1.11225e-07
1.11225e-07
1.11225e-07
1.11225e-07
1.11225e-07
1.11225e-07
1.11225e-07
1.11225e-07
1.11225e-07
1.11225e-07
1.11225e-07
1.11225e-07
1.11225e-07
1.11225e-07
1.11225e-07
1.11225e-07
1.11225e-07
1.11225e-07
1.11225e-07
1.11225e-07
1.11225e-07
1.11225e-07
1.11225e-07
1.11225e-07
1.11225e-07
1.11225e-07
1.11225e-07
1.11225e-07
1.11225e-07
1.11225e-07
1.11225e-07
1.11225e-07
1.11225e-07
1.11225e-07
1.11225e-07
1.11225e-07
1.11225e-07
1.11225e-07
1.11225e-07
1.11225e-07
1.11225e-07
1.11225e-07
1.11225e-07
1.11225e-07
1.11225e-07
1.11225e-07
1.11225e-07
1.11225e-07
1.11225e-07
1.11225e-07
1.11225e-07
1.11225e-07
1.11225e-07
1.11225e-07
1.11225e-07
1.11225e-07
1.11225e-07
1.11225e-07
1.11225e-07
1.11225e-07
1.11225e-07
1.11225e-07
1.11225e-07
1.11225e-07
1.11225e-07
1.11225e-07
1.11225e-07
1.11225e-07
1.11225e-07
1.11225e-07
1.11225e-07
1.11225e-07
1.11225e-07
1.11225e-07
1.11225e-07
1.11225e-07
1.11225e-07
1.11225e-07
1.11225e-07
1.11225e-07
1.11225e-07
1.11225e-07
1.11225e-07
1.11225e-07
1.11225e-07
1.11225e-07
1.11225e-07
1.11225e-07
1.11225e-07
1.11225e-07
1.11225e-07
1.11225e-07
1.11225e-07
1.11225e-07
1.11225e-07
1.11225e-07
1.11225e-07
1.11225e-07
1.11225e-07
1.11225e-07
1.11225e-07
1.11225e-07
1.11225e-07
1.11225e-07
1.11225e-07
1.11225e-07
1.60507e+12
2.20091e+08
0.0553485
0.00970182
0.00999314
0.010395
0.0107617
0.0110171
0.0110918
0.0111243
0.0110985
0.0110741
0.0109341
0.0107493
0.0105982
0.0103892
0.0102063
0.0100651
0.0099639
0.0098881
0.00982251
0.00981402
0.0097382
0.0096484
0.00948608
0.00942943
0.00931056
0.00919351
0.00914137
0.00904017
0.00893416
0.00876583
0.00833731
0.0071155
0.00393812
0.000542455
7.09984e-06
1.9386e-07
1.12536e-07
1.11228e-07
1.11225e-07
1.11225e-07
1.11225e-07
1.11225e-07
1.11225e-07
1.11225e-07
1.11225e-07
1.11225e-07
1.11225e-07
1.11225e-07
1.11225e-07
1.11225e-07
1.11225e-07
1.11225e-07
1.11225e-07
1.11225e-07
1.11225e-07
1.11225e-07
1.11225e-07
1.11225e-07
1.11225e-07
1.11225e-07
1.11225e-07
1.11225e-07
1.11225e-07
1.11225e-07
1.11225e-07
1.11225e-07
1.11225e-07
1.11225e-07
1.11225e-07
1.11225e-07
1.11225e-07
1.11225e-07
1.11225e-07
1.11225e-07
1.11225e-07
1.11225e-07
1.11225e-07
1.11225e-07
1.11225e-07
1.11225e-07
1.11225e-07
1.11225e-07
1.11225e-07
1.11225e-07
1.11225e-07
1.11225e-07
1.11225e-07
1.11225e-07
1.11225e-07
1.11225e-07
1.11225e-07
1.11225e-07
1.11225e-07
1.11225e-07
1.11225e-07
1.11225e-07
1.11225e-07
1.11225e-07
1.11225e-07
1.11225e-07
1.11225e-07
1.11225e-07
1.11225e-07
1.11225e-07
1.11225e-07
1.11225e-07
1.11225e-07
1.11225e-07
1.11225e-07
1.11225e-07
1.11225e-07
1.11225e-07
1.11225e-07
1.11225e-07
1.11225e-07
1.11225e-07
1.11225e-07
1.11225e-07
1.11225e-07
1.11225e-07
1.11225e-07
1.11225e-07
1.11225e-07
1.11225e-07
1.11225e-07
1.11225e-07
1.11225e-07
1.11225e-07
1.11225e-07
1.11225e-07
1.11225e-07
1.11225e-07
1.11225e-07
1.11225e-07
1.11225e-07
1.11225e-07
1.11225e-07
1.11225e-07
1.11225e-07
1.11225e-07
1.11225e-07
1.11225e-07
1.11225e-07
1.11225e-07
1.11225e-07
1.11225e-07
1.11225e-07
1.11225e-07
1.11225e-07
1.11225e-07
1.11225e-07
1.11225e-07
1.11225e-07
1.11225e-07
1.11225e-07
1.11225e-07
1.11225e-07
1.11225e-07
1.11225e-07
1.11225e-07
1.11225e-07
1.11225e-07
1.11225e-07
1.11225e-07
1.11225e-07
1.49298e+12
4.20687e+07
0.0307625
0.0091099
0.00944333
0.0098896
0.0103209
0.0106709
0.0108589
0.0109775
0.0109946
0.0109532
0.0108463
0.0106895
0.0105622
0.0103719
0.0102012
0.0100656
0.00996632
0.00989128
0.00982531
0.00981594
0.00973918
0.00964869
0.00948606
0.00942933
0.00931043
0.0091934
0.0091413
0.00904013
0.00893416
0.00876583
0.00833733
0.00711552
0.00393815
0.000542468
7.10008e-06
1.93862e-07
1.12536e-07
1.11228e-07
1.11225e-07
1.11225e-07
1.11225e-07
1.11225e-07
1.11225e-07
1.11225e-07
1.11225e-07
1.11225e-07
1.11225e-07
1.11225e-07
1.11225e-07
1.11225e-07
1.11225e-07
1.11225e-07
1.11225e-07
1.11225e-07
1.11225e-07
1.11225e-07
1.11225e-07
1.11225e-07
1.11225e-07
1.11225e-07
1.11225e-07
1.11225e-07
1.11225e-07
1.11225e-07
1.11225e-07
1.11225e-07
1.11225e-07
1.11225e-07
1.11225e-07
1.11225e-07
1.11225e-07
1.11225e-07
1.11225e-07
1.11225e-07
1.11225e-07
1.11225e-07
1.11225e-07
1.11225e-07
1.11225e-07
1.11225e-07
1.11225e-07
1.11225e-07
1.11225e-07
1.11225e-07
1.11225e-07
1.11225e-07
1.11225e-07
1.11225e-07
1.11225e-07
1.11225e-07
1.11225e-07
1.11225e-07
1.11225e-07
1.11225e-07
1.11225e-07
1.11225e-07
1.11225e-07
1.11225e-07
1.11225e-07
1.11225e-07
1.11225e-07
1.11225e-07
1.11225e-07
1.11225e-07
1.11225e-07
1.11225e-07
1.11225e-07
1.11225e-07
1.11225e-07
1.11225e-07
1.11225e-07
1.11225e-07
1.11225e-07
1.11225e-07
1.11225e-07
1.11225e-07
1.11225e-07
1.11225e-07
1.11225e-07
1.11225e-07
1.11225e-07
1.11225e-07
1.11225e-07
1.11225e-07
1.11225e-07
1.11225e-07
1.11225e-07
1.11225e-07
1.11225e-07
1.11225e-07
1.11225e-07
1.11225e-07
1.11225e-07
1.11225e-07
1.11225e-07
1.11225e-07
1.11225e-07
1.11225e-07
1.11225e-07
1.11225e-07
1.11225e-07
1.11225e-07
1.11225e-07
1.11225e-07
1.11225e-07
1.11225e-07
1.11225e-07
1.11225e-07
1.11225e-07
1.11225e-07
1.11225e-07
1.11225e-07
1.11225e-07
1.11225e-07
1.11225e-07
1.11225e-07
1.11225e-07
1.11225e-07
1.11225e-07
1.11225e-07
1.11225e-07
1.11225e-07
1.11225e-07
1.11225e-07
1.11225e-07
1.16718e+12
6.83002e+06
0.0185
0.00845918
0.00888493
0.00935318
0.00976673
0.0101829
0.0105248
0.0106969
0.0107944
0.010796
0.0107329
0.0106654
0.0104468
0.0103376
0.0101847
0.0100608
0.00996684
0.00989374
0.00982852
0.00981876
0.00974109
0.00964965
0.00948634
0.00942931
0.00931034
0.00919327
0.00914119
0.00904006
0.00893411
0.00876582
0.00833734
0.00711555
0.00393819
0.000542481
7.10031e-06
1.93864e-07
1.12536e-07
1.11228e-07
1.11225e-07
1.11225e-07
1.11225e-07
1.11225e-07
1.11225e-07
1.11225e-07
1.11225e-07
1.11225e-07
1.11225e-07
1.11225e-07
1.11225e-07
1.11225e-07
1.11225e-07
1.11225e-07
1.11225e-07
1.11225e-07
1.11225e-07
1.11225e-07
1.11225e-07
1.11225e-07
1.11225e-07
1.11225e-07
1.11225e-07
1.11225e-07
1.11225e-07
1.11225e-07
1.11225e-07
1.11225e-07
1.11225e-07
1.11225e-07
1.11225e-07
1.11225e-07
1.11225e-07
1.11225e-07
1.11225e-07
1.11225e-07
1.11225e-07
1.11225e-07
1.11225e-07
1.11225e-07
1.11225e-07
1.11225e-07
1.11225e-07
1.11225e-07
1.11225e-07
1.11225e-07
1.11225e-07
1.11225e-07
1.11225e-07
1.11225e-07
1.11225e-07
1.11225e-07
1.11225e-07
1.11225e-07
1.11225e-07
1.11225e-07
1.11225e-07
1.11225e-07
1.11225e-07
1.11225e-07
1.11225e-07
1.11225e-07
1.11225e-07
1.11225e-07
1.11225e-07
1.11225e-07
1.11225e-07
1.11225e-07
1.11225e-07
1.11225e-07
1.11225e-07
1.11225e-07
1.11225e-07
1.11225e-07
1.11225e-07
1.11225e-07
1.11225e-07
1.11225e-07
1.11225e-07
1.11225e-07
1.11225e-07
1.11225e-07
1.11225e-07
1.11225e-07
1.11225e-07
1.11225e-07
1.11225e-07
1.11225e-07
1.11225e-07
1.11225e-07
1.11225e-07
1.11225e-07
1.11225e-07
1.11225e-07
1.11225e-07
1.11225e-07
1.11225e-07
1.11225e-07
1.11225e-07
1.11225e-07
1.11225e-07
1.11225e-07
1.11225e-07
1.11225e-07
1.11225e-07
1.11225e-07
1.11225e-07
1.11225e-07
1.11225e-07
1.11225e-07
1.11225e-07
1.11225e-07
1.11225e-07
1.11225e-07
1.11225e-07
1.11225e-07
1.11225e-07
1.11225e-07
1.11225e-07
1.11225e-07
1.11225e-07
1.11225e-07
1.11225e-07
1.11225e-07
1.11225e-07
1.11225e-07
1.11225e-07
8.02441e+11
844289
0.0123361
0.00793708
0.00832133
0.00880087
0.00923743
0.00969654
0.0100478
0.0103756
0.0105823
0.0106564
0.0106425
0.0105591
0.0104271
0.0102829
0.0101518
0.0100452
0.0099625
0.00989435
0.00983105
0.00982202
0.00974394
0.00965156
0.0094873
0.0094296
0.00931032
0.00919318
0.00914105
0.00903993
0.00893402
0.00876577
0.00833732
0.00711556
0.00393823
0.000542495
7.10056e-06
1.93866e-07
1.12536e-07
1.11228e-07
1.11225e-07
1.11225e-07
1.11225e-07
1.11225e-07
1.11225e-07
1.11225e-07
1.11225e-07
1.11225e-07
1.11225e-07
1.11225e-07
1.11225e-07
1.11225e-07
1.11225e-07
1.11225e-07
1.11225e-07
1.11225e-07
1.11225e-07
1.11225e-07
1.11225e-07
1.11225e-07
1.11225e-07
1.11225e-07
1.11225e-07
1.11225e-07
1.11225e-07
1.11225e-07
1.11225e-07
1.11225e-07
1.11225e-07
1.11225e-07
1.11225e-07
1.11225e-07
1.11225e-07
1.11225e-07
1.11225e-07
1.11225e-07
1.11225e-07
1.11225e-07
1.11225e-07
1.11225e-07
1.11225e-07
1.11225e-07
1.11225e-07
1.11225e-07
1.11225e-07
1.11225e-07
1.11225e-07
1.11225e-07
1.11225e-07
1.11225e-07
1.11225e-07
1.11225e-07
1.11225e-07
1.11225e-07
1.11225e-07
1.11225e-07
1.11225e-07
1.11225e-07
1.11225e-07
1.11225e-07
1.11225e-07
1.11225e-07
1.11225e-07
1.11225e-07
1.11225e-07
1.11225e-07
1.11225e-07
1.11225e-07
1.11225e-07
1.11225e-07
1.11225e-07
1.11225e-07
1.11225e-07
1.11225e-07
1.11225e-07
1.11225e-07
1.11225e-07
1.11225e-07
1.11225e-07
1.11225e-07
1.11225e-07
1.11225e-07
1.11225e-07
1.11225e-07
1.11225e-07
1.11225e-07
1.11225e-07
1.11225e-07
1.11225e-07
1.11225e-07
1.11225e-07
1.11225e-07
1.11225e-07
1.11225e-07
1.11225e-07
1.11225e-07
1.11225e-07
1.11225e-07
1.11225e-07
1.11225e-07
1.11225e-07
1.11225e-07
1.11225e-07
1.11225e-07
1.11225e-07
1.11225e-07
1.11225e-07
1.11225e-07
1.11225e-07
1.11225e-07
1.11225e-07
1.11225e-07
1.11225e-07
1.11225e-07
1.11225e-07
1.11225e-07
1.11225e-07
1.11225e-07
1.11225e-07
1.11225e-07
1.11225e-07
1.11225e-07
1.11225e-07
1.11225e-07
1.11225e-07
1.11225e-07
1.11225e-07
4.72574e+11
79756.3
0.00916107
0.00725442
0.00771026
0.00824376
0.00863263
0.00917526
0.00951276
0.0099099
0.0102158
0.0103936
0.0104468
0.0104195
0.0103273
0.0102078
0.010099
0.0100137
0.0099477
0.00989036
0.00983182
0.00976653
0.00974727
0.00965443
0.00948922
0.00943057
0.00931062
0.00919317
0.00914096
0.0090398
0.00893389
0.00876567
0.00833726
0.00711556
0.00393826
0.000542509
7.10081e-06
1.93868e-07
1.12537e-07
1.11228e-07
1.11225e-07
1.11225e-07
1.11225e-07
1.11225e-07
1.11225e-07
1.11225e-07
1.11225e-07
1.11225e-07
1.11225e-07
1.11225e-07
1.11225e-07
1.11225e-07
1.11225e-07
1.11225e-07
1.11225e-07
1.11225e-07
1.11225e-07
1.11225e-07
1.11225e-07
1.11225e-07
1.11225e-07
1.11225e-07
1.11225e-07
1.11225e-07
1.11225e-07
1.11225e-07
1.11225e-07
1.11225e-07
1.11225e-07
1.11225e-07
1.11225e-07
1.11225e-07
1.11225e-07
1.11225e-07
1.11225e-07
1.11225e-07
1.11225e-07
1.11225e-07
1.11225e-07
1.11225e-07
1.11225e-07
1.11225e-07
1.11225e-07
1.11225e-07
1.11225e-07
1.11225e-07
1.11225e-07
1.11225e-07
1.11225e-07
1.11225e-07
1.11225e-07
1.11225e-07
1.11225e-07
1.11225e-07
1.11225e-07
1.11225e-07
1.11225e-07
1.11225e-07
1.11225e-07
1.11225e-07
1.11225e-07
1.11225e-07
1.11225e-07
1.11225e-07
1.11225e-07
1.11225e-07
1.11225e-07
1.11225e-07
1.11225e-07
1.11225e-07
1.11225e-07
1.11225e-07
1.11225e-07
1.11225e-07
1.11225e-07
1.11225e-07
1.11225e-07
1.11225e-07
1.11225e-07
1.11225e-07
1.11225e-07
1.11225e-07
1.11225e-07
1.11225e-07
1.11225e-07
1.11225e-07
1.11225e-07
1.11225e-07
1.11225e-07
1.11225e-07
1.11225e-07
1.11225e-07
1.11225e-07
1.11225e-07
1.11225e-07
1.11225e-07
1.11225e-07
1.11225e-07
1.11225e-07
1.11225e-07
1.11225e-07
1.11225e-07
1.11225e-07
1.11225e-07
1.11225e-07
1.11225e-07
1.11225e-07
1.11225e-07
1.11225e-07
1.11225e-07
1.11225e-07
1.11225e-07
1.11225e-07
1.11225e-07
1.11225e-07
1.11225e-07
1.11225e-07
1.11225e-07
1.11225e-07
1.11225e-07
1.11225e-07
1.11225e-07
1.11225e-07
1.11225e-07
1.11225e-07
1.11225e-07
1.11225e-07
2.62875e+11
4119.08
0.00735963
0.0067645
0.00716605
0.00763315