/*--------------------------------*- C++ -*----------------------------------*\
  =========                 |
  \\      /  F ield         | OpenFOAM: The Open Source CFD Toolbox
   \\    /   O peration     | Website:  https://openfoam.org
    \\  /    A nd           | Version:  13
     \\/     M anipulation  |
\*---------------------------------------------------------------------------*/
FoamFile
{
    format      ascii;
    class       volVectorField;
    location    "0.0021";
    object      U;
}
// * * * * * * * * * * * * * * * * * * * * * * * * * * * * * * * * * * * * * //

dimensions      [0 1 -1 0 0 0 0];

internalField   nonuniform List<vector> 
33334
(
(926.368 -2.05421 0)
(854.656 -0.920224 0)
(419.549 -0.101943 0)
(212.985 0.0549418 0)
(208.354 0.0200278 0)
(208.061 0.00153862 0)
(207.738 -0.000974194 0)
(207.384 -0.00171182 0)
(207.032 -0.00212916 0)
(206.687 -0.00247186 0)
(206.349 -0.00249899 0)
(206.019 -0.00234349 0)
(205.697 -0.00210881 0)
(205.381 -0.00187949 0)
(205.072 -0.00171926 0)
(204.768 -0.00164061 0)
(204.468 -0.00160389 0)
(204.174 -0.00157831 0)
(203.885 -0.00155277 0)
(203.602 -0.00152797 0)
(203.323 -0.00150387 0)
(203.048 -0.00147829 0)
(202.778 -0.00144992 0)
(202.513 -0.00141873 0)
(202.252 -0.00138574 0)
(201.996 -0.00135202 0)
(201.743 -0.00131782 0)
(201.494 -0.00128242 0)
(201.253 -0.00124722 0)
(201.024 -0.00121923 0)
(200.781 -0.0011987 0)
(200.405 -0.00116853 0)
(199.462 -0.00111779 0)
(196.295 -0.00105102 0)
(184.806 -0.000961683 0)
(147.458 -0.000771361 0)
(69.0695 -0.000413511 0)
(9.55105 -9.56354e-05 0)
(0.229386 -6.54704e-06 0)
(0.00069867 -9.33937e-08 0)
(2.11425e-07 -1.93338e-10 0)
(3.84864e-11 3.02546e-13 0)
(-2.11817e-13 4.81657e-13 0)
(-1.74322e-13 3.16409e-13 0)
(-1.72792e-13 4.78202e-13 0)
(8.40299e-14 4.24677e-13 0)
(2.57683e-13 2.27806e-13 0)
(1.51216e-13 6.66186e-14 0)
(1.92442e-13 1.8664e-13 0)
(2.10357e-13 1.17224e-13 0)
(3.03618e-15 1.85844e-13 0)
(-2.36143e-13 2.32661e-13 0)
(-4.47485e-13 3.21505e-13 0)
(-3.78558e-13 2.20362e-13 0)
(3.05642e-14 1.64687e-13 0)
(1.82062e-13 -5.09695e-14 0)
(1.66485e-14 4.35237e-14 0)
(1.78848e-13 1.22032e-13 0)
(1.07787e-13 2.67043e-13 0)
(-1.61199e-13 4.60204e-13 0)
(-2.58688e-13 2.96672e-13 0)
(-4.72652e-13 4.93564e-13 0)
(-2.99631e-13 3.24594e-13 0)
(-2.66638e-13 1.55023e-13 0)
(-2.81198e-13 1.1607e-13 0)
(-1.85492e-13 2.50019e-13 0)
(-1.17047e-13 2.46945e-13 0)
(-1.49037e-13 2.58603e-13 0)
(-2.32577e-14 2.10103e-13 0)
(1.22962e-13 2.77683e-13 0)
(-3.26002e-13 1.65719e-13 0)
(-5.56247e-13 2.09176e-13 0)
(-5.71075e-13 2.603e-14 0)
(-6.20147e-13 2.36135e-13 0)
(-4.85598e-13 2.68306e-13 0)
(-3.1331e-13 3.56258e-13 0)
(-2.08229e-13 2.6817e-13 0)
(-2.72745e-13 3.97521e-13 0)
(-1.42607e-13 2.80655e-13 0)
(-9.94372e-14 1.27778e-13 0)
(-2.86733e-13 1.32781e-13 0)
(-2.27177e-13 1.83749e-13 0)
(-2.12093e-13 1.99371e-13 0)
(-1.59073e-13 3.46482e-13 0)
(2.19364e-13 2.8048e-13 0)
(2.33799e-13 2.77005e-13 0)
(2.26278e-13 2.95356e-13 0)
(1.53113e-13 1.0591e-13 0)
(-2.09036e-13 1.9986e-13 0)
(-2.01199e-13 1.36761e-13 0)
(-4.29192e-14 2.56332e-13 0)
(1.17236e-14 1.70864e-13 0)
(-9.73731e-14 2.15647e-13 0)
(-1.71157e-13 1.09133e-13 0)
(-3.48066e-13 1.7417e-13 0)
(-5.81432e-13 1.93942e-13 0)
(-4.76276e-13 1.98475e-13 0)
(-2.49343e-13 2.18205e-13 0)
(-2.19465e-13 4.30225e-13 0)
(8.03231e-16 3.43099e-13 0)
(2.44092e-13 3.01449e-13 0)
(1.91159e-13 1.68516e-13 0)
(1.65477e-13 2.51167e-13 0)
(1.54816e-13 1.78427e-13 0)
(1.05891e-13 4.51494e-13 0)
(1.28619e-13 3.7485e-13 0)
(-1.2103e-14 5.3434e-13 0)
(1.42397e-13 5.1753e-13 0)
(3.11025e-13 6.60732e-13 0)
(4.21283e-13 5.44079e-13 0)
(5.27799e-13 2.50411e-13 0)
(4.42849e-13 2.40034e-13 0)
(3.88631e-13 2.83596e-13 0)
(2.31873e-13 2.64462e-13 0)
(1.64515e-13 6.41758e-14 0)
(4.63343e-13 1.41271e-13 0)
(6.76373e-13 1.13519e-13 0)
(4.37176e-13 1.90998e-13 0)
(7.21561e-14 1.46512e-14 0)
(-1.06613e-13 1.38923e-13 0)
(-3.74871e-13 2.52733e-14 0)
(-4.20985e-13 1.99977e-13 0)
(-1.40017e-13 1.99557e-13 0)
(-1.08719e-13 2.21262e-13 0)
(-1.52839e-13 1.47548e-13 0)
(-1.83671e-13 2.1459e-13 0)
(-1.47708e-13 1.19741e-13 0)
(-5.2391e-14 2.1414e-13 0)
(3.25772e-14 1.17841e-13 0)
(2.89794e-14 2.27972e-13 0)
(2.5881e-15 1.50215e-13 0)
(1.63572e-13 2.11349e-13 0)
(2.46525e-13 2.2772e-13 0)
(1.76351e-13 2.93372e-13 0)
(1.35252e-13 3.23788e-13 0)
(-4.12589e-14 3.41497e-13 0)
(-1.64742e-14 2.90098e-13 0)
(-8.3806e-15 1.54092e-13 0)
(3.21714e-14 3.10623e-13 0)
(3.96082e-13 2.36429e-13 0)
(7.65595e-13 3.39714e-13 0)
(4.26162e-13 2.94324e-13 0)
(4.39853e-14 1.39167e-13 0)
(-1.38693e-13 -5.73624e-14 0)
(-1.51359e-13 1.01674e-13 0)
(-6.97801e-14 -2.27431e-14 0)
(-2.84355e-13 -1.89256e-15 0)
(-1.73319e-13 -1.76644e-16 0)
(-1.28926e-13 -3.27644e-14 0)
(-4.50175e-13 -9.12696e-14 0)
(-6.98592e-13 -4.39246e-14 0)
(-4.65444e-13 4.88405e-14 0)
(2.03578e-14 1.8836e-13 0)
(4.66358e-14 1.65782e-13 0)
(-1.40402e-13 2.58096e-13 0)
(-1.07385e-13 5.78139e-14 0)
(-2.33892e-14 1.57221e-13 0)
(1.1167e-13 2.49906e-13 0)
(1.74775e-13 3.52515e-13 0)
(2.19466e-13 3.33044e-13 0)
(3.03364e-13 3.9707e-13 0)
(3.96365e-13 3.65816e-13 0)
(3.41772e-13 2.29037e-13 0)
(2.27475e-13 2.8483e-13 0)
(3.42598e-13 1.67656e-13 0)
(6.29483e-13 2.5335e-13 0)
(2.86052e-13 3.25502e-13 0)
(927.847 6.44777 0)
(855.002 3.95101 0)
(419.449 1.23455 0)
(212.945 0.231414 0)
(208.34 0.118382 0)
(208.077 0.0542871 0)
(207.786 0.0142605 0)
(207.444 -0.00365493 0)
(207.092 -0.00971692 0)
(206.747 -0.0105975 0)
(206.407 -0.0090678 0)
(206.073 -0.00682777 0)
(205.746 -0.00451308 0)
(205.426 -0.00273371 0)
(205.113 -0.00171969 0)
(204.806 -0.00130736 0)
(204.504 -0.00123443 0)
(204.208 -0.00133036 0)
(203.918 -0.00143516 0)
(203.632 -0.00150245 0)
(203.351 -0.00153055 0)
(203.075 -0.00153388 0)
(202.803 -0.00152605 0)
(202.536 -0.00151565 0)
(202.274 -0.00150656 0)
(202.016 -0.00149973 0)
(201.761 -0.00149451 0)
(201.51 -0.00148892 0)
(201.267 -0.00148715 0)
(201.036 -0.00150807 0)
(200.792 -0.00155448 0)
(200.414 -0.0015915 0)
(199.469 -0.00160186 0)
(196.3 -0.0015962 0)
(184.809 -0.00155211 0)
(147.461 -0.00129074 0)
(69.0707 -0.000599198 0)
(9.55129 -8.11954e-05 0)
(0.229394 -1.88458e-06 0)
(0.0006987 -6.02562e-09 0)
(2.11436e-07 -1.44676e-12 0)
(3.87637e-11 6.14401e-13 0)
(-1.77475e-13 7.0386e-13 0)
(-1.77415e-13 7.94404e-13 0)
(-2.48766e-13 5.72005e-13 0)
(-6.70551e-14 4.05927e-13 0)
(1.32463e-13 1.61539e-13 0)
(1.76449e-13 3.13011e-13 0)
(2.90339e-13 3.40673e-13 0)
(2.54378e-13 6.00411e-13 0)
(1.95537e-13 4.79094e-13 0)
(-1.17747e-13 5.49452e-13 0)
(-4.8574e-13 4.2759e-13 0)
(-4.76358e-13 3.7966e-13 0)
(-1.11299e-13 2.8513e-13 0)
(1.36239e-13 5.54471e-14 0)
(7.62155e-14 -1.98323e-14 0)
(2.19041e-13 8.99441e-14 0)
(2.26434e-13 -3.60621e-14 0)
(-9.74185e-14 2.34018e-13 0)
(-2.50409e-13 2.6068e-13 0)
(-5.17404e-13 3.65024e-13 0)
(-6.57228e-13 3.76374e-13 0)
(-3.84336e-13 2.86243e-13 0)
(-2.01439e-13 3.79583e-13 0)
(-1.38599e-13 3.89573e-13 0)
(-1.59917e-13 5.74321e-13 0)
(-1.06482e-13 6.1326e-13 0)
(-6.35578e-14 7.75581e-13 0)
(-8.898e-14 3.13921e-13 0)
(-3.97152e-13 6.21972e-14 0)
(-6.26849e-13 2.33859e-13 0)
(-5.58465e-13 2.50225e-13 0)
(-5.05026e-13 4.94612e-13 0)
(-4.22084e-13 7.6226e-13 0)
(-2.5082e-13 7.5142e-13 0)
(-2.05646e-13 8.82304e-13 0)
(-4.18968e-13 7.20068e-13 0)
(-4.72026e-13 3.76869e-13 0)
(-2.12426e-13 1.95991e-13 0)
(-2.7597e-13 1.52527e-13 0)
(-3.60416e-13 2.58253e-13 0)
(-1.82312e-13 1.72495e-13 0)
(-2.56975e-14 3.75954e-13 0)
(3.01446e-13 4.31319e-13 0)
(2.35076e-13 3.16824e-13 0)
(1.2871e-14 2.91355e-13 0)
(7.98621e-14 1.23583e-13 0)
(-1.36439e-13 1.78162e-13 0)
(-1.87588e-13 3.41138e-13 0)
(-1.23164e-14 4.05428e-13 0)
(1.52617e-14 6.34661e-13 0)
(-1.52904e-14 5.4119e-13 0)
(-1.84735e-13 7.59632e-13 0)
(-3.74889e-13 6.13418e-13 0)
(-5.77433e-13 7.36277e-13 0)
(-4.28654e-13 5.42878e-13 0)
(-1.16764e-13 5.32893e-13 0)
(-1.88351e-13 4.95994e-13 0)
(-1.51233e-13 5.80541e-13 0)
(1.51075e-13 5.01156e-13 0)
(2.35259e-13 5.26335e-13 0)
(2.29741e-13 4.88376e-13 0)
(2.88125e-13 5.27303e-13 0)
(1.55525e-13 4.2078e-13 0)
(1.13996e-13 3.5341e-13 0)
(-3.26646e-15 2.91946e-13 0)
(1.87053e-13 3.13037e-13 0)
(3.98072e-13 3.75996e-13 0)
(3.51956e-13 4.5199e-13 0)
(4.45821e-13 6.1415e-13 0)
(5.73159e-13 4.43388e-13 0)
(4.00181e-13 5.60054e-13 0)
(2.94047e-14 2.51108e-13 0)
(6.15883e-14 1.02544e-13 0)
(5.01104e-13 1.4422e-13 0)
(6.9311e-13 3.29956e-13 0)
(4.44069e-13 5.70339e-14 0)
(1.54212e-14 2.87943e-13 0)
(-2.14164e-13 1.61573e-13 0)
(-2.74075e-13 2.05373e-13 0)
(-1.97423e-13 2.83894e-13 0)
(-1.81839e-13 4.51005e-13 0)
(-2.54894e-13 2.86209e-13 0)
(-1.88846e-13 3.63922e-13 0)
(-1.75788e-13 2.27288e-13 0)
(-1.36136e-13 3.08204e-13 0)
(-3.85175e-14 3.00846e-13 0)
(5.58805e-14 4.28605e-13 0)
(2.13168e-14 2.64448e-13 0)
(-1.01043e-14 3.1564e-13 0)
(1.43314e-13 4.13645e-13 0)
(2.38118e-13 5.30781e-13 0)
(2.73693e-13 5.32957e-13 0)
(3.2664e-13 6.9945e-13 0)
(-4.63988e-15 7.22892e-13 0)
(-1.60517e-13 6.22689e-13 0)
(6.65671e-14 6.58142e-13 0)
(8.68246e-14 6.59746e-13 0)
(2.96972e-13 5.44212e-13 0)
(6.09004e-13 4.72967e-13 0)
(2.54305e-13 3.25603e-13 0)
(-4.03395e-14 3.44761e-13 0)
(-1.21616e-13 2.24507e-13 0)
(-2.46963e-13 1.76865e-13 0)
(-1.86223e-13 1.12968e-13 0)
(-1.65423e-13 4.16152e-14 0)
(-1.77995e-13 1.93284e-13 0)
(-2.70048e-13 2.32057e-14 0)
(-5.18191e-13 2.62356e-14 0)
(-6.06209e-13 2.95489e-14 0)
(-3.02801e-13 2.40069e-13 0)
(1.50119e-13 3.17955e-13 0)
(1.45516e-13 4.30649e-13 0)
(-2.63319e-13 3.54873e-13 0)
(-2.62311e-13 2.69642e-13 0)
(1.1651e-14 4.14092e-13 0)
(2.17396e-13 5.53795e-13 0)
(3.18727e-13 5.74333e-13 0)
(4.87546e-13 5.54876e-13 0)
(4.24996e-13 7.65297e-13 0)
(2.81349e-13 6.82423e-13 0)
(3.07973e-13 6.43427e-13 0)
(1.6749e-13 5.65963e-13 0)
(2.96868e-13 5.37262e-13 0)
(6.32086e-13 6.34817e-13 0)
(2.15196e-13 5.42987e-13 0)
(927.627 13.5979 0)
(851.572 10.2587 0)
(413.449 3.43594 0)
(212.539 0.410925 0)
(208.258 0.221182 0)
(208.022 0.11906 0)
(207.75 0.0475003 0)
(207.427 0.00523635 0)
(207.088 -0.0118188 0)
(206.747 -0.0160938 0)
(206.409 -0.0150217 0)
(206.076 -0.0107553 0)
(205.748 -0.00658033 0)
(205.427 -0.00364505 0)
(205.113 -0.00197853 0)
(204.806 -0.0012293 0)
(204.504 -0.00106802 0)
(204.207 -0.00113477 0)
(203.917 -0.00126958 0)
(203.632 -0.00138331 0)
(203.351 -0.00144644 0)
(203.074 -0.0014686 0)
(202.803 -0.00146835 0)
(202.536 -0.00145905 0)
(202.274 -0.00144847 0)
(202.015 -0.00144051 0)
(201.761 -0.00143547 0)
(201.51 -0.00143456 0)
(201.267 -0.00144389 0)
(201.036 -0.00146648 0)
(200.791 -0.00149357 0)
(200.413 -0.00151887 0)
(199.468 -0.00153778 0)
(196.3 -0.00151164 0)
(184.809 -0.00136224 0)
(147.461 -0.00100787 0)
(69.0712 -0.000472138 0)
(9.55146 -6.93686e-05 0)
(0.229401 -1.8435e-06 0)
(0.000698734 -6.25626e-09 0)
(2.11449e-07 -1.50692e-12 0)
(3.87849e-11 3.13079e-13 0)
(-4.71809e-14 4.72577e-13 0)
(-3.35755e-13 8.13245e-13 0)
(-4.62688e-13 5.62682e-13 0)
(-1.52156e-13 5.35087e-13 0)
(1.59435e-13 4.15076e-13 0)
(3.05519e-13 4.83669e-13 0)
(5.2713e-13 5.119e-13 0)
(4.46871e-13 7.11864e-13 0)
(7.78546e-14 7.70622e-13 0)
(-2.39075e-13 7.32211e-13 0)
(-5.7383e-13 6.72432e-13 0)
(-5.28875e-13 6.09845e-13 0)
(-2.39171e-13 5.15612e-13 0)
(-1.88127e-14 3.6997e-13 0)
(4.62217e-14 2.56317e-13 0)
(7.19457e-14 3.12119e-13 0)
(1.43617e-13 2.04673e-13 0)
(1.27348e-13 3.10625e-13 0)
(-1.4878e-13 5.27416e-13 0)
(-4.7493e-13 4.51495e-13 0)
(-5.56124e-13 6.16697e-13 0)
(-4.19133e-13 7.49399e-13 0)
(-2.41848e-13 9.6546e-13 0)
(-4.51535e-14 7.70712e-13 0)
(-6.50814e-14 6.61643e-13 0)
(-5.74627e-14 6.49593e-13 0)
(-2.48208e-13 7.81533e-13 0)
(-5.56452e-13 5.40946e-13 0)
(-4.4663e-13 3.56659e-13 0)
(-4.80925e-13 5.21486e-13 0)
(-4.53599e-13 6.58299e-13 0)
(-2.055e-13 5.51261e-13 0)
(-2.62845e-13 6.62586e-13 0)
(-1.68102e-13 7.73129e-13 0)
(-3.00343e-13 9.21938e-13 0)
(-6.21979e-13 7.11607e-13 0)
(-5.65767e-13 6.56747e-13 0)
(-3.87359e-13 5.98386e-13 0)
(-2.87636e-13 4.50398e-13 0)
(-2.23631e-13 5.13321e-13 0)
(-1.6698e-13 5.52353e-13 0)
(3.00799e-14 6.41174e-13 0)
(1.57333e-13 6.24313e-13 0)
(1.79411e-13 5.60846e-13 0)
(7.18502e-14 5.66462e-13 0)
(3.74005e-14 5.45825e-13 0)
(-5.67638e-14 5.81893e-13 0)
(-7.63152e-14 8.11689e-13 0)
(1.36148e-13 6.93358e-13 0)
(8.8681e-14 7.12763e-13 0)
(2.6621e-14 6.47614e-13 0)
(-1.58946e-13 7.9606e-13 0)
(-3.88813e-13 6.88911e-13 0)
(-5.81295e-13 6.52706e-13 0)
(-6.1636e-13 7.22067e-13 0)
(-2.99135e-13 6.56034e-13 0)
(-1.29449e-13 5.77342e-13 0)
(-3.19433e-14 7.94298e-13 0)
(1.77328e-13 7.24169e-13 0)
(1.97267e-13 7.84923e-13 0)
(2.73153e-13 7.11396e-13 0)
(1.63426e-13 7.20056e-13 0)
(-2.86929e-14 5.62493e-13 0)
(9.3503e-15 5.03932e-13 0)
(-5.36386e-14 4.46131e-13 0)
(1.62014e-13 5.28146e-13 0)
(4.24286e-13 3.57421e-13 0)
(6.42998e-13 3.97377e-13 0)
(4.60574e-13 5.24815e-13 0)
(3.95911e-13 2.68489e-13 0)
(2.33074e-13 4.06035e-14 0)
(-1.18074e-13 7.88244e-15 0)
(1.76908e-13 2.12488e-13 0)
(6.5171e-13 2.29338e-13 0)
(5.99183e-13 2.35073e-13 0)
(4.11655e-13 2.39047e-13 0)
(9.5633e-14 3.75068e-13 0)
(-1.69588e-13 2.512e-13 0)
(-2.08567e-13 2.01534e-13 0)
(-1.92004e-13 2.06951e-13 0)
(-1.81474e-13 1.79988e-13 0)
(-2.07792e-13 2.29217e-13 0)
(-1.82873e-13 2.20956e-13 0)
(-2.13292e-13 2.78122e-13 0)
(-8.29376e-14 5.35852e-13 0)
(1.79827e-14 3.33156e-13 0)
(1.02153e-14 3.26256e-13 0)
(-6.48226e-14 2.67277e-13 0)
(1.17992e-13 3.15987e-13 0)
(3.06261e-13 3.93859e-13 0)
(2.95048e-13 4.41652e-13 0)
(3.71039e-13 6.45179e-13 0)
(2.92321e-13 8.39632e-13 0)
(-6.96895e-14 7.23717e-13 0)
(-5.60853e-14 7.78138e-13 0)
(-1.3573e-14 7.0508e-13 0)
(-3.45259e-15 6.4175e-13 0)
(2.50963e-13 6.65236e-13 0)
(4.77432e-13 4.93535e-13 0)
(2.61249e-13 3.25945e-13 0)
(1.42259e-14 3.05052e-13 0)
(-2.12745e-13 4.07505e-13 0)
(-3.50399e-13 1.7821e-13 0)
(-2.31274e-13 -6.01851e-14 0)
(-1.72109e-13 -1.86731e-13 0)
(-1.94961e-13 -2.60776e-13 0)
(-3.15694e-13 -2.05944e-13 0)
(-4.81182e-13 -1.18981e-13 0)
(-4.79755e-13 2.33261e-13 0)
(-2.4268e-13 5.67085e-13 0)
(1.16538e-13 3.56505e-13 0)
(3.22986e-14 2.10287e-13 0)
(-2.62974e-13 1.36281e-13 0)
(3.13322e-14 3.14231e-13 0)
(2.15259e-13 4.19773e-13 0)
(2.31041e-13 4.17953e-13 0)
(3.0874e-13 4.66495e-13 0)
(4.61444e-13 7.66171e-13 0)
(4.21992e-13 5.66737e-13 0)
(2.97195e-13 5.75649e-13 0)
(1.64552e-13 5.269e-13 0)
(8.68637e-14 4.79626e-13 0)
(3.9403e-13 7.14872e-13 0)
(6.58404e-13 6.05689e-13 0)
(2.70408e-13 4.72019e-13 0)
(927.84 19.6533 0)
(846.033 14.6626 0)
(403.96 4.74055 0)
(211.908 0.609391 0)
(208.111 0.356086 0)
(207.909 0.215496 0)
(207.672 0.111466 0)
(207.385 0.0397578 0)
(207.071 0.000656906 0)
(206.743 -0.0142322 0)
(206.41 -0.0165521 0)
(206.078 -0.0145377 0)
(205.751 -0.0100984 0)
(205.429 -0.00602651 0)
(205.114 -0.00327334 0)
(204.806 -0.00184956 0)
(204.503 -0.00122796 0)
(204.207 -0.00103577 0)
(203.917 -0.00107119 0)
(203.631 -0.00119928 0)
(203.35 -0.00132567 0)
(203.074 -0.00140368 0)
(202.802 -0.00143441 0)
(202.536 -0.0014371 0)
(202.273 -0.0014289 0)
(202.015 -0.00142004 0)
(201.76 -0.0014135 0)
(201.509 -0.00141231 0)
(201.267 -0.00142245 0)
(201.036 -0.00144471 0)
(200.791 -0.00146827 0)
(200.413 -0.00147939 0)
(199.468 -0.00146905 0)
(196.3 -0.00143386 0)
(184.809 -0.00133215 0)
(147.461 -0.00103824 0)
(69.0718 -0.000484996 0)
(9.55164 -6.98952e-05 0)
(0.229409 -1.81368e-06 0)
(0.000698768 -6.05051e-09 0)
(2.11463e-07 -1.36891e-12 0)
(3.89936e-11 4.93512e-13 0)
(2.54168e-13 7.30315e-13 0)
(-2.96851e-13 7.16062e-13 0)
(-5.64765e-13 7.08929e-13 0)
(-1.85753e-13 7.47196e-13 0)
(6.81776e-14 9.29292e-13 0)
(2.63227e-13 7.52797e-13 0)
(5.47832e-13 9.13744e-13 0)
(5.52066e-13 7.7182e-13 0)
(1.62987e-13 8.22628e-13 0)
(-2.82607e-13 8.08667e-13 0)
(-6.28932e-13 8.36179e-13 0)
(-5.22696e-13 7.72164e-13 0)
(-2.40332e-13 8.34988e-13 0)
(-4.92128e-14 7.82883e-13 0)
(4.53922e-14 8.19305e-13 0)
(1.09148e-13 7.75795e-13 0)
(1.56574e-13 8.2872e-13 0)
(1.37312e-13 8.8845e-13 0)
(-1.9646e-13 9.37671e-13 0)
(-4.7601e-13 9.72261e-13 0)
(-3.81606e-13 9.44182e-13 0)
(-1.77696e-13 1.13275e-12 0)
(-2.46829e-13 1.06176e-12 0)
(-3.39228e-13 1.13825e-12 0)
(-2.14448e-13 8.96339e-13 0)
(6.55708e-15 8.23649e-13 0)
(-2.44599e-13 8.02853e-13 0)
(-6.3424e-13 8.45304e-13 0)
(-4.42934e-13 6.50082e-13 0)
(-3.36476e-13 6.20116e-13 0)
(-4.68078e-13 6.67832e-13 0)
(-2.92457e-13 7.18123e-13 0)
(-9.48223e-14 9.36795e-13 0)
(-3.97766e-15 1.0807e-12 0)
(-3.05011e-13 8.93095e-13 0)
(-6.82852e-13 8.95703e-13 0)
(-5.64307e-13 1.02815e-12 0)
(-4.30868e-13 1.13788e-12 0)
(-3.86352e-13 1.01163e-12 0)
(-2.384e-13 9.98e-13 0)
(-2.95805e-14 1.06135e-12 0)
(5.68091e-14 1.22622e-12 0)
(1.60237e-13 1.08305e-12 0)
(2.03369e-13 1.12417e-12 0)
(7.35252e-14 1.17232e-12 0)
(3.56765e-14 1.03436e-12 0)
(1.21888e-13 9.91056e-13 0)
(-2.29413e-14 1.09794e-12 0)
(-7.13439e-14 1.10636e-12 0)
(1.54078e-15 9.93133e-13 0)
(6.87418e-14 1.0187e-12 0)
(-1.3251e-13 9.1716e-13 0)
(-4.67879e-13 8.86809e-13 0)
(-5.78179e-13 8.22746e-13 0)
(-5.37526e-13 8.54769e-13 0)
(-2.97253e-13 8.75385e-13 0)
(-2.41974e-14 7.84252e-13 0)
(3.76581e-14 7.96909e-13 0)
(1.57818e-13 8.67534e-13 0)
(1.90172e-13 7.92413e-13 0)
(2.0817e-13 8.59187e-13 0)
(1.34414e-13 7.56223e-13 0)
(-4.14978e-14 7.21613e-13 0)
(-1.33075e-15 7.46973e-13 0)
(-4.88468e-14 7.18222e-13 0)
(8.15079e-14 6.73721e-13 0)
(3.47311e-13 5.37182e-13 0)
(5.27285e-13 4.54567e-13 0)
(3.56389e-13 3.78718e-13 0)
(1.9821e-13 4.54376e-13 0)
(2.14994e-13 4.16201e-13 0)
(6.02051e-14 4.51397e-13 0)
(2.26878e-13 6.17358e-13 0)
(5.16484e-13 5.17201e-13 0)
(6.46112e-13 3.73271e-13 0)
(5.42885e-13 3.34752e-13 0)
(6.63054e-14 3.03487e-13 0)
(-3.11435e-13 3.83542e-13 0)
(-2.673e-13 3.20012e-13 0)
(-2.06678e-13 3.51074e-13 0)
(-1.5952e-13 3.0718e-13 0)
(-1.75289e-13 3.17457e-13 0)
(-1.3955e-13 2.64721e-13 0)
(-9.72022e-15 3.25351e-13 0)
(-9.30511e-14 3.64911e-13 0)
(-1.25998e-13 4.33232e-13 0)
(3.25713e-14 4.54778e-13 0)
(2.49589e-14 5.74542e-13 0)
(1.87816e-13 7.75298e-13 0)
(2.60404e-13 9.21087e-13 0)
(3.51519e-13 7.67551e-13 0)
(5.5839e-13 9.52344e-13 0)
(2.63249e-13 8.76546e-13 0)
(-1.16623e-13 8.10717e-13 0)
(-9.33905e-14 9.75563e-13 0)
(-4.4806e-14 9.67403e-13 0)
(8.28535e-14 9.90196e-13 0)
(1.73283e-13 8.33076e-13 0)
(2.36604e-13 6.59949e-13 0)
(7.78464e-14 4.77933e-13 0)
(6.81012e-14 3.78418e-13 0)
(-1.54986e-13 4.00726e-13 0)
(-5.62209e-13 3.82005e-13 0)
(-4.6412e-13 1.06845e-13 0)
(-3.14038e-13 3.02564e-14 0)
(-2.3191e-13 -6.04533e-14 0)
(-1.75406e-13 -4.17303e-14 0)
(-2.22132e-13 8.08304e-14 0)
(-3.08535e-14 2.9614e-13 0)
(-1.67656e-13 5.10515e-13 0)
(-1.19884e-13 5.89976e-13 0)
(-2.0551e-14 5.20906e-13 0)
(-1.26315e-13 5.17057e-13 0)
(7.79264e-14 6.95061e-13 0)
(1.31944e-13 7.50441e-13 0)
(1.90076e-13 5.78281e-13 0)
(5.14904e-13 5.86355e-13 0)
(5.45599e-13 6.81253e-13 0)
(2.863e-13 6.86924e-13 0)
(2.76156e-13 7.96671e-13 0)
(2.27433e-13 7.61883e-13 0)
(2.07164e-13 8.35088e-13 0)
(3.6109e-13 7.29212e-13 0)
(3.97203e-13 4.7166e-13 0)
(1.30889e-13 3.06062e-13 0)
(928.224 26.0817 0)
(837.81 19.4785 0)
(390.561 6.06859 0)
(211.094 0.846621 0)
(207.914 0.528971 0)
(207.756 0.348202 0)
(207.561 0.206015 0)
(207.314 0.100613 0)
(207.034 0.0339495 0)
(206.729 -0.00128766 0)
(206.408 -0.0142506 0)
(206.081 -0.0160444 0)
(205.755 -0.0140794 0)
(205.433 -0.00981518 0)
(205.117 -0.00587231 0)
(204.807 -0.00313088 0)
(204.504 -0.00169822 0)
(204.207 -0.00118189 0)
(203.916 -0.00107943 0)
(203.631 -0.00113906 0)
(203.35 -0.00124733 0)
(203.074 -0.00133323 0)
(202.802 -0.00138844 0)
(202.535 -0.00141809 0)
(202.273 -0.00143012 0)
(202.015 -0.00142798 0)
(201.76 -0.00142185 0)
(201.509 -0.00141973 0)
(201.267 -0.00142374 0)
(201.036 -0.00142895 0)
(200.791 -0.00143067 0)
(200.413 -0.0014278 0)
(199.468 -0.00141896 0)
(196.3 -0.00139292 0)
(184.809 -0.00130179 0)
(147.461 -0.00103139 0)
(69.0724 -0.000488743 0)
(9.55183 -7.09366e-05 0)
(0.229416 -1.84353e-06 0)
(0.000698802 -6.13618e-09 0)
(2.11477e-07 -1.33844e-12 0)
(3.9368e-11 5.31547e-13 0)
(1.02847e-13 9.23977e-13 0)
(-3.85543e-13 6.82785e-13 0)
(-4.58878e-13 8.63247e-13 0)
(-3.43607e-14 9.11823e-13 0)
(8.90281e-14 1.09498e-12 0)
(2.76062e-13 1.08298e-12 0)
(4.77579e-13 1.00391e-12 0)
(3.49059e-13 7.04169e-13 0)
(6.03006e-14 6.9245e-13 0)
(-2.08682e-13 5.55462e-13 0)
(-5.22035e-13 7.21347e-13 0)
(-4.85589e-13 9.41386e-13 0)
(-2.07404e-13 1.04426e-12 0)
(-6.48927e-14 1.12858e-12 0)
(4.75417e-15 1.11345e-12 0)
(1.81944e-13 1.08813e-12 0)
(4.12278e-13 1.07646e-12 0)
(1.5419e-13 1.02562e-12 0)
(-2.1966e-13 8.98172e-13 0)
(-4.75457e-13 1.11679e-12 0)
(-3.73563e-13 1.24664e-12 0)
(-2.84744e-13 1.21447e-12 0)
(-2.86993e-13 1.05478e-12 0)
(-2.72678e-13 1.20582e-12 0)
(-3.76404e-13 1.12588e-12 0)
(-1.28089e-13 1.08566e-12 0)
(-2.20073e-13 8.00398e-13 0)
(-7.24806e-13 8.7889e-13 0)
(-6.22603e-13 7.87203e-13 0)
(-3.63492e-13 7.63526e-13 0)
(-4.04134e-13 7.04108e-13 0)
(-2.56042e-14 7.95353e-13 0)
(2.05148e-13 1.0135e-12 0)
(-1.15273e-13 1.14154e-12 0)
(-4.47214e-13 1.05314e-12 0)
(-5.77657e-13 1.22221e-12 0)
(-4.11449e-13 1.30034e-12 0)
(-4.35793e-13 1.31037e-12 0)
(-4.27109e-13 1.28431e-12 0)
(-2.4384e-13 1.35943e-12 0)
(3.23944e-14 1.41453e-12 0)
(7.67914e-14 1.54249e-12 0)
(7.26144e-14 1.47758e-12 0)
(3.24704e-13 1.48759e-12 0)
(-5.81554e-14 1.4144e-12 0)
(-1.49926e-13 1.24501e-12 0)
(8.18104e-14 1.17209e-12 0)
(5.88231e-14 1.04695e-12 0)
(1.45939e-14 1.21221e-12 0)
(-2.38717e-14 1.18002e-12 0)
(-1.46483e-14 1.11988e-12 0)
(-2.14576e-13 1.03275e-12 0)
(-4.35438e-13 1.06674e-12 0)
(-6.17283e-13 9.91807e-13 0)
(-6.21693e-13 1.00139e-12 0)
(-3.85738e-13 9.27114e-13 0)
(-1.07624e-13 9.66842e-13 0)
(9.99074e-14 8.3643e-13 0)
(1.66262e-13 9.55006e-13 0)
(1.69105e-13 8.83016e-13 0)
(2.01914e-13 8.43604e-13 0)
(6.95527e-14 6.8379e-13 0)
(-1.30673e-14 7.30061e-13 0)
(2.48225e-14 6.89532e-13 0)
(-7.83105e-14 5.84208e-13 0)
(6.46245e-15 6.26668e-13 0)
(2.55155e-13 6.75479e-13 0)
(4.46513e-13 7.26939e-13 0)
(4.14316e-13 6.94489e-13 0)
(3.47938e-13 8.19547e-13 0)
(2.52072e-13 7.53791e-13 0)
(1.04285e-13 8.97251e-13 0)
(2.18407e-13 8.50908e-13 0)
(4.00448e-13 6.33273e-13 0)
(5.01348e-13 5.28953e-13 0)
(4.28109e-13 3.72554e-13 0)
(1.57681e-13 3.24128e-13 0)
(-2.31152e-13 3.6151e-13 0)
(-2.82429e-13 4.95971e-13 0)
(-2.23451e-13 3.92575e-13 0)
(-1.5192e-13 3.55391e-13 0)
(-2.00449e-13 3.84219e-13 0)
(-1.789e-13 3.46467e-13 0)
(-2.99399e-14 4.05035e-13 0)
(5.63119e-15 3.48392e-13 0)
(1.52683e-14 5.20502e-13 0)
(1.39828e-13 6.01839e-13 0)
(2.09695e-13 8.78294e-13 0)
(4.47632e-13 1.06446e-12 0)
(2.99797e-13 1.07738e-12 0)
(3.59221e-13 1.11754e-12 0)
(4.74067e-13 1.04276e-12 0)
(5.86943e-14 8.12365e-13 0)
(-9.4611e-14 5.7942e-13 0)
(-5.18812e-14 6.73937e-13 0)
(1.80797e-14 7.34847e-13 0)
(-2.0193e-14 8.50709e-13 0)
(-7.90267e-14 6.84506e-13 0)
(5.89906e-14 5.17308e-13 0)
(5.52961e-15 3.87017e-13 0)
(7.37042e-15 4.45282e-13 0)
(-9.68728e-14 3.75834e-13 0)
(-5.29229e-13 4.75605e-13 0)
(-5.62802e-13 5.42134e-13 0)
(-3.61207e-13 4.52908e-13 0)
(-2.4027e-13 3.25855e-13 0)
(-1.65699e-13 3.62109e-13 0)
(-3.2866e-14 3.63484e-13 0)
(4.28551e-14 5.09978e-13 0)
(-4.92494e-14 6.18086e-13 0)
(2.40624e-14 7.68775e-13 0)
(-1.80918e-14 7.82776e-13 0)
(-4.96458e-14 8.76478e-13 0)
(1.89128e-13 9.23017e-13 0)
(7.69469e-14 9.84704e-13 0)
(3.93104e-14 8.48599e-13 0)
(4.29742e-13 7.81103e-13 0)
(5.77175e-13 6.83012e-13 0)
(4.49423e-13 6.67444e-13 0)
(2.94178e-13 7.54515e-13 0)
(2.03269e-13 6.93443e-13 0)
(9.76834e-14 7.35764e-13 0)
(5.21891e-14 4.63476e-13 0)
(2.11546e-13 2.35585e-13 0)
(8.10599e-14 1.72741e-13 0)
(929.438 31.8252 0)
(826.997 23.3089 0)
(374.269 6.98876 0)
(210.179 1.16938 0)
(207.666 0.751694 0)
(207.562 0.519504 0)
(207.413 0.33849 0)
(207.211 0.195375 0)
(206.97 0.0946327 0)
(206.695 0.0313074 0)
(206.396 -0.00216275 0)
(206.081 -0.0143688 0)
(205.758 -0.0160519 0)
(205.437 -0.0140867 0)
(205.121 -0.00986236 0)
(204.81 -0.00591219 0)
(204.505 -0.00312585 0)
(204.207 -0.0016241 0)
(203.916 -0.00109765 0)
(203.631 -0.00100986 0)
(203.35 -0.00107314 0)
(203.074 -0.00121315 0)
(202.802 -0.00132543 0)
(202.535 -0.00138675 0)
(202.273 -0.00140613 0)
(202.015 -0.0014071 0)
(201.76 -0.00140248 0)
(201.509 -0.00139923 0)
(201.267 -0.00139876 0)
(201.036 -0.00139973 0)
(200.791 -0.00140007 0)
(200.413 -0.00140111 0)
(199.468 -0.00140175 0)
(196.3 -0.00138571 0)
(184.81 -0.00130227 0)
(147.462 -0.0010298 0)
(69.073 -0.000486798 0)
(9.55202 -7.06138e-05 0)
(0.229424 -1.83639e-06 0)
(0.000698837 -6.11876e-09 0)
(2.11491e-07 -1.35999e-12 0)
(3.97108e-11 1.73309e-13 0)
(7.13694e-14 5.79308e-13 0)
(-2.18619e-13 4.7177e-13 0)
(-2.90866e-13 7.02601e-13 0)
(-8.90393e-14 6.88684e-13 0)
(7.94102e-14 6.61199e-13 0)
(1.36041e-13 6.61739e-13 0)
(2.20346e-13 5.75084e-13 0)
(2.02221e-13 4.1914e-13 0)
(3.06376e-14 4.62883e-13 0)
(-1.21787e-13 4.7088e-13 0)
(-2.54588e-13 4.96671e-13 0)
(-3.22285e-13 7.69843e-13 0)
(-1.86299e-13 7.78224e-13 0)
(-6.63055e-14 8.66891e-13 0)
(2.12585e-14 8.04353e-13 0)
(1.15621e-13 8.76258e-13 0)
(2.31274e-13 6.61631e-13 0)
(4.4833e-14 5.64542e-13 0)
(-1.40317e-13 5.51318e-13 0)
(-2.47877e-13 7.56449e-13 0)
(-3.06439e-13 1.03205e-12 0)
(-3.60057e-13 7.38636e-13 0)
(-2.93373e-13 6.99705e-13 0)
(-2.63225e-13 7.73028e-13 0)
(-2.96173e-13 7.81851e-13 0)
(-2.70795e-13 8.56352e-13 0)
(-3.95783e-13 5.59543e-13 0)
(-6.27297e-13 6.28921e-13 0)
(-5.64526e-13 7.31555e-13 0)
(-4.52717e-13 6.37217e-13 0)
(-4.57012e-13 6.72908e-13 0)
(-6.75327e-14 7.47931e-13 0)
(2.85731e-13 7.24856e-13 0)
(3.94363e-14 8.68136e-13 0)
(-3.42501e-13 9.50928e-13 0)
(-4.95353e-13 1.15178e-12 0)
(-4.48834e-13 1.20901e-12 0)
(-4.26944e-13 1.17707e-12 0)
(-3.34482e-13 1.37484e-12 0)
(-1.03636e-13 1.37908e-12 0)
(1.12554e-13 1.52532e-12 0)
(1.23582e-13 1.35249e-12 0)
(9.96188e-14 1.45908e-12 0)
(1.73024e-13 1.25342e-12 0)
(-1.63013e-13 9.89756e-13 0)
(-1.79304e-13 9.20635e-13 0)
(-1.01754e-13 8.44825e-13 0)
(2.25985e-14 6.58471e-13 0)
(6.71109e-14 7.25136e-13 0)
(-6.45108e-14 7.76555e-13 0)
(-3.51529e-14 8.13346e-13 0)
(-1.59264e-13 7.97864e-13 0)
(-4.8587e-13 9.77586e-13 0)
(-6.47574e-13 8.0429e-13 0)
(-6.18347e-13 9.5611e-13 0)
(-3.50082e-13 9.61122e-13 0)
(-1.37676e-13 1.04592e-12 0)
(8.02595e-14 9.30053e-13 0)
(2.03673e-13 9.3602e-13 0)
(6.58373e-14 9.27774e-13 0)
(3.34326e-15 7.07119e-13 0)
(7.26271e-14 5.39171e-13 0)
(1.01425e-14 6.53097e-13 0)
(-9.5249e-14 6.81371e-13 0)
(-1.42944e-13 6.37749e-13 0)
(1.84829e-13 6.96357e-13 0)
(4.56459e-13 8.66553e-13 0)
(5.38159e-13 9.87978e-13 0)
(4.61851e-13 9.42946e-13 0)
(2.05929e-13 1.02349e-12 0)
(2.04981e-13 8.61695e-13 0)
(1.15412e-13 9.03609e-13 0)
(-8.32851e-15 6.92281e-13 0)
(2.47361e-13 5.78741e-13 0)
(4.37533e-13 4.22663e-13 0)
(3.64758e-13 4.92618e-13 0)
(1.25594e-13 3.21946e-13 0)
(-1.72748e-13 2.69043e-13 0)
(-3.10954e-13 3.46171e-13 0)
(-3.45234e-13 3.24226e-13 0)
(-1.58994e-13 2.69578e-13 0)
(-1.69543e-13 2.27283e-13 0)
(-9.87833e-14 2.48182e-13 0)
(5.27087e-14 3.15634e-13 0)
(1.16264e-14 3.69718e-13 0)
(-1.24463e-14 5.02393e-13 0)
(2.62014e-13 5.6901e-13 0)
(5.00306e-13 7.78894e-13 0)
(4.41147e-13 8.08751e-13 0)
(2.96845e-13 7.90768e-13 0)
(3.92099e-13 8.45776e-13 0)
(2.89144e-13 7.38506e-13 0)
(-2.04775e-13 5.68366e-13 0)
(-2.56199e-13 5.03341e-13 0)
(-1.3974e-14 4.43467e-13 0)
(1.52054e-13 4.10977e-13 0)
(2.02668e-14 3.70404e-13 0)
(-1.72491e-13 2.64019e-13 0)
(-1.07002e-13 2.22972e-13 0)
(1.42818e-14 1.64819e-13 0)
(4.10891e-14 3.6691e-13 0)
(-7.70989e-14 1.83458e-13 0)
(-4.0461e-13 2.98543e-13 0)
(-4.89944e-13 4.5585e-13 0)
(-5.58608e-13 4.64697e-13 0)
(-3.21536e-13 3.82955e-13 0)
(-1.26207e-13 5.12114e-13 0)
(5.73932e-14 3.85368e-13 0)
(2.25616e-13 5.31312e-13 0)
(7.47763e-14 5.4415e-13 0)
(-7.04156e-15 7.39155e-13 0)
(3.78112e-14 7.93217e-13 0)
(4.88599e-15 7.01608e-13 0)
(1.53174e-13 6.59351e-13 0)
(5.0083e-14 6.80845e-13 0)
(3.49162e-14 7.47091e-13 0)
(4.08339e-13 7.33542e-13 0)
(4.64841e-13 6.65517e-13 0)
(3.78252e-13 5.86622e-13 0)
(2.93588e-13 4.54438e-13 0)
(2.16683e-13 3.47501e-13 0)
(3.3719e-14 2.57036e-13 0)
(-1.24799e-13 2.82023e-13 0)
(5.61145e-14 2.5353e-13 0)
(1.7768e-13 2.96607e-13 0)
(930.646 37.6448 0)
(813.337 27.0042 0)
(355.355 7.71668 0)
(209.172 1.55033 0)
(207.34 1.07064 0)
(207.318 0.736871 0)
(207.219 0.505574 0)
(207.07 0.32616 0)
(206.872 0.187755 0)
(206.635 0.0904382 0)
(206.365 0.0291747 0)
(206.069 -0.0030969 0)
(205.758 -0.0146944 0)
(205.441 -0.016221 0)
(205.125 -0.0141121 0)
(204.814 -0.00987662 0)
(204.508 -0.0059353 0)
(204.209 -0.00313089 0)
(203.917 -0.00159989 0)
(203.631 -0.00105778 0)
(203.35 -0.000977336 0)
(203.073 -0.00104223 0)
(202.802 -0.00118594 0)
(202.535 -0.0013037 0)
(202.273 -0.00137012 0)
(202.015 -0.00139312 0)
(201.76 -0.00139524 0)
(201.509 -0.00139088 0)
(201.267 -0.0013864 0)
(201.036 -0.00138527 0)
(200.791 -0.00138669 0)
(200.413 -0.00138786 0)
(199.468 -0.00138542 0)
(196.3 -0.00136479 0)
(184.81 -0.00128046 0)
(147.462 -0.00101287 0)
(69.0736 -0.000479369 0)
(9.55221 -6.96202e-05 0)
(0.229432 -1.81218e-06 0)
(0.000698871 -6.04195e-09 0)
(2.11504e-07 -1.37158e-12 0)
(3.9781e-11 4.53881e-13 0)
(4.23267e-14 5.27767e-13 0)
(-1.47541e-13 6.06668e-13 0)
(-2.25192e-13 5.78357e-13 0)
(-1.30502e-13 6.29385e-13 0)
(-2.89929e-14 4.62493e-13 0)
(1.44653e-13 3.4312e-13 0)
(3.1563e-13 2.85193e-13 0)
(3.12479e-13 5.02354e-13 0)
(9.99159e-14 6.6018e-13 0)
(-1.32631e-13 8.02708e-13 0)
(-2.23428e-13 7.59371e-13 0)
(-3.02984e-13 8.1069e-13 0)
(-2.79745e-13 7.1409e-13 0)
(-5.16744e-14 5.83918e-13 0)
(7.50174e-14 5.18179e-13 0)
(2.66044e-14 5.76458e-13 0)
(4.93873e-14 5.52912e-13 0)
(6.81222e-14 6.36144e-13 0)
(-4.35462e-14 7.79437e-13 0)
(-1.28607e-14 7.39742e-13 0)
(-3.77743e-13 7.76031e-13 0)
(-6.64566e-13 5.33279e-13 0)
(-2.46423e-13 4.59273e-13 0)
(-2.13832e-13 3.92909e-13 0)
(-2.59183e-13 5.44751e-13 0)
(-2.10239e-13 6.87797e-13 0)
(-4.47099e-13 8.61749e-13 0)
(-5.57249e-13 8.09892e-13 0)
(-6.69564e-13 8.55198e-13 0)
(-5.62282e-13 5.5677e-13 0)
(-3.13708e-13 6.38932e-13 0)
(5.80661e-14 7.28443e-13 0)
(3.06555e-13 7.06357e-13 0)
(9.95235e-14 8.59468e-13 0)
(-1.90629e-13 1.04793e-12 0)
(-3.68754e-13 1.15351e-12 0)
(-4.61014e-13 1.24371e-12 0)
(-2.94826e-13 1.23061e-12 0)
(-1.45445e-13 1.39085e-12 0)
(-1.40422e-14 1.35088e-12 0)