/*--------------------------------*- C++ -*----------------------------------*\
  =========                 |
  \\      /  F ield         | OpenFOAM: The Open Source CFD Toolbox
   \\    /   O peration     | Website:  https://openfoam.org
    \\  /    A nd           | Version:  13
     \\/     M anipulation  |
\*---------------------------------------------------------------------------*/
FoamFile
{
    format      ascii;
    class       volVectorField;
    location    "0.0017";
    object      U;
}
// * * * * * * * * * * * * * * * * * * * * * * * * * * * * * * * * * * * * * //

dimensions      [0 1 -1 0 0 0 0];

internalField   nonuniform List<vector> 
33333
(
(2.64773e-13 3.68811e-13 0)
(5.48954e-13 3.21189e-13 0)
(6.19064e-13 2.02699e-13 0)
(4.54618e-13 1.95958e-13 0)
(6.06708e-13 3.62712e-13 0)
(7.8046e-13 5.46935e-13 0)
(5.32757e-13 4.94444e-13 0)
(1.79395e-13 1.35488e-13 0)
(-2.22183e-13 1.2257e-13 0)
(-2.01754e-13 2.23378e-13 0)
(-1.42063e-13 2.01161e-13 0)
(-3.8991e-13 3.29266e-13 0)
(-5.46437e-13 5.31531e-13 0)
(-4.16604e-13 4.49192e-13 0)
(-5.833e-13 3.70737e-13 0)
(-6.44737e-13 4.18448e-13 0)
(-3.53906e-13 3.54998e-13 0)
(1.66606e-14 3.37511e-13 0)
(-2.02762e-14 2.6202e-13 0)
(-4.4976e-14 2.90764e-13 0)
(7.43458e-14 2.85037e-13 0)
(-3.34687e-13 2.7579e-13 0)
(-4.99302e-13 5.74929e-13 0)
(-2.43172e-13 5.38802e-13 0)
(-2.78611e-14 5.25254e-13 0)
(1.98214e-13 5.82943e-13 0)
(3.88115e-13 4.95064e-13 0)
(4.31008e-13 3.47012e-13 0)
(2.09022e-13 2.14768e-13 0)
(4.85633e-14 3.06521e-13 0)
(-2.66329e-13 2.63794e-13 0)
(-5.25948e-13 4.9594e-13 0)
(-2.24902e-13 3.05348e-13 0)
(9.40245e-15 1.39686e-13 0)
(2.8813e-13 1.56899e-13 0)
(1.90096e-13 6.78226e-14 0)
(-1.40609e-13 2.3606e-13 0)
(-2.67573e-13 2.29496e-13 0)
(-1.57418e-13 2.38305e-13 0)
(7.0283e-14 3.16095e-13 0)
(2.39579e-13 2.18042e-13 0)
(3.7149e-13 3.31005e-13 0)
(5.65613e-13 4.55196e-13 0)
(4.46875e-13 5.30169e-13 0)
(1.0664e-13 5.63658e-13 0)
(-1.34178e-13 4.92163e-13 0)
(-5.07895e-14 4.56461e-13 0)
(9.54209e-14 5.03482e-13 0)
(1.80575e-13 4.3006e-13 0)
(1.90461e-13 4.31327e-13 0)
(2.54885e-13 4.75348e-13 0)
(2.68492e-13 3.8221e-13 0)
(7.10922e-14 3.08103e-13 0)
(1.19948e-13 4.01005e-13 0)
(2.42101e-13 4.50006e-13 0)
(1.95171e-13 6.38528e-13 0)
(3.25271e-13 7.89615e-13 0)
(2.61858e-13 7.65767e-13 0)
(2.09381e-13 7.96275e-13 0)
(2.94173e-13 7.44032e-13 0)
(1.59341e-13 8.54923e-13 0)
(-5.0588e-14 8.76431e-13 0)
(-1.70739e-13 7.40644e-13 0)
(-2.46661e-13 6.3413e-13 0)
(-2.08093e-13 5.94602e-13 0)
(-1.88614e-13 6.77489e-13 0)
(-3.50166e-14 6.05938e-13 0)
(-1.08451e-13 4.00569e-13 0)
(-3.51716e-13 3.68885e-13 0)
(-2.4903e-13 4.18072e-13 0)
(-6.96301e-15 4.2779e-13 0)
(9.87511e-14 4.11257e-13 0)
(-4.83112e-14 3.92419e-13 0)
(-1.80137e-13 3.88505e-13 0)
(-8.37309e-14 3.71293e-13 0)
(1.10518e-13 3.35992e-13 0)
(1.83336e-13 2.19878e-13 0)
(2.23265e-13 2.54556e-13 0)
(1.96435e-13 1.4546e-13 0)
(2.97774e-13 2.49139e-13 0)
(4.27724e-13 3.11285e-13 0)
(2.91425e-13 5.32688e-13 0)
(2.65045e-13 7.06951e-13 0)
(2.16197e-13 6.98751e-13 0)
(2.95464e-13 6.00366e-13 0)
(2.71868e-13 6.92267e-13 0)
(1.08361e-13 6.46896e-13 0)
(-2.69739e-13 5.65308e-13 0)
(-5.64356e-13 4.83664e-13 0)
(-3.90571e-13 6.08207e-13 0)
(-4.28782e-13 5.96828e-13 0)
(-5.19476e-13 5.3658e-13 0)
(-3.28003e-13 3.86143e-13 0)
(-1.24624e-13 3.44591e-13 0)
(8.32509e-15 2.20738e-13 0)
(-2.95231e-14 1.94062e-13 0)
(-4.21176e-14 2.73748e-13 0)
(2.01616e-13 3.70027e-13 0)
(2.80838e-13 2.68449e-13 0)
(3.86574e-13 3.22185e-13 0)
(5.05132e-13 4.37621e-13 0)
(1.87563e-13 3.62934e-13 0)
(9.12134e-14 4.06089e-13 0)
(3.65573e-13 4.44896e-13 0)
(3.16771e-14 3.75273e-13 0)
(-3.05375e-13 6.6634e-13 0)
(-2.88311e-13 8.77764e-13 0)
(-4.63485e-13 8.70316e-13 0)
(-4.33656e-13 6.60584e-13 0)
(-1.16129e-13 4.35034e-13 0)
(-2.19798e-13 2.23291e-13 0)
(-2.82003e-13 3.07091e-13 0)
(-9.28502e-14 4.78343e-13 0)
(-1.85696e-13 5.77157e-13 0)
(-2.1962e-13 6.49566e-13 0)
(-8.04382e-14 6.30599e-13 0)
(8.18269e-17 5.8301e-13 0)
(1.9976e-13 5.15989e-13 0)
(2.09792e-13 4.87749e-13 0)
(4.62944e-15 5.49641e-13 0)
(-1.29106e-13 4.43899e-13 0)
(-1.92334e-13 4.11289e-13 0)
(-1.75305e-13 4.92518e-13 0)
(-1.05945e-13 4.44199e-13 0)
(-5.50249e-14 4.37459e-13 0)
(1.71794e-14 4.53856e-13 0)
(5.78907e-14 3.98828e-13 0)
(-4.0175e-14 4.67341e-13 0)
(-1.40054e-14 4.74372e-13 0)
(1.86736e-13 4.63364e-13 0)
(1.5061e-13 4.1872e-13 0)
(5.77745e-14 5.53965e-13 0)
(-8.59642e-15 7.87399e-13 0)
(-2.80008e-14 7.62692e-13 0)
(9.8908e-14 7.04737e-13 0)
(5.6516e-14 6.81813e-13 0)
(1.89916e-14 4.7588e-13 0)
(-1.17827e-13 4.50741e-13 0)
(-2.39668e-13 5.98555e-13 0)
(-1.13423e-13 7.31952e-13 0)
(-8.73223e-14 8.19713e-13 0)
(-5.29622e-14 6.15793e-13 0)
(4.01633e-14 4.65445e-13 0)
(-5.07771e-14 3.9641e-13 0)
(-1.71148e-13 3.79674e-13 0)
(-1.16419e-13 3.6686e-13 0)
(4.80949e-14 4.00433e-13 0)
(8.91138e-14 4.74492e-13 0)
(1.30548e-13 3.51606e-13 0)
(2.35139e-13 3.41196e-13 0)
(1.0188e-13 2.47552e-13 0)
(-4.44962e-14 3.05225e-13 0)
(3.82149e-14 2.4989e-13 0)
(3.61358e-15 1.83055e-13 0)
(9.31535e-14 2.96637e-13 0)
(3.60369e-14 3.31861e-13 0)
(6.71964e-14 5.4872e-13 0)
(1.88704e-13 5.57296e-13 0)
(2.17895e-13 5.80978e-13 0)
(3.88631e-13 4.87364e-13 0)
(3.78826e-13 2.7878e-13 0)
(3.43069e-13 3.58683e-13 0)
(1.55659e-13 3.24642e-13 0)
(-1.53703e-13 5.0398e-13 0)
(-3.57438e-15 6.14927e-13 0)
(9.18131e-14 5.69082e-13 0)
(2.42523e-13 2.55738e-13 0)
(5.08585e-13 2.2241e-13 0)
(5.82698e-13 3.0127e-13 0)
(5.87329e-13 2.09612e-13 0)
(8.37029e-13 3.27096e-13 0)
(8.07749e-13 2.98337e-13 0)
(3.97164e-13 3.59459e-13 0)
(5.07917e-14 1.93371e-13 0)
(-1.52368e-13 1.24131e-14 0)
(-1.26681e-13 1.51983e-13 0)
(-5.1668e-14 4.66994e-13 0)
(-2.71674e-13 4.88247e-13 0)
(-5.47065e-13 4.42732e-13 0)
(-5.73774e-13 3.3142e-13 0)
(-5.54359e-13 4.20802e-13 0)
(-5.33208e-13 4.41743e-13 0)
(-3.62582e-13 5.77743e-13 0)
(-4.43467e-14 5.8293e-13 0)
(1.29892e-14 6.57233e-13 0)
(-8.22455e-14 6.31452e-13 0)
(-1.49101e-13 6.48459e-13 0)
(-2.94381e-13 4.2887e-13 0)
(-3.58107e-13 6.28394e-13 0)
(-3.18952e-13 6.12779e-13 0)
(-7.61805e-14 5.50428e-13 0)
(1.98586e-13 5.29921e-13 0)
(3.30259e-13 3.88157e-13 0)
(2.80146e-13 4.0994e-13 0)
(1.70011e-13 2.60893e-13 0)
(5.49278e-14 3.62829e-13 0)
(-1.75018e-13 2.07304e-13 0)
(-3.98055e-13 4.19061e-13 0)
(-4.08204e-13 3.87401e-13 0)
(-1.47384e-13 3.64532e-13 0)
(1.77136e-13 3.6549e-13 0)
(3.16621e-13 1.82043e-13 0)
(5.18095e-15 2.27809e-13 0)
(-2.92352e-13 3.32165e-13 0)
(-1.70283e-13 5.17824e-13 0)
(9.80457e-14 7.08372e-13 0)
(2.96453e-13 6.29506e-13 0)
(5.75425e-13 6.49599e-13 0)
(8.59881e-13 6.67019e-13 0)
(6.85784e-13 7.71968e-13 0)
(8.126e-14 7.08717e-13 0)
(-2.26318e-13 9.0612e-13 0)
(-1.312e-13 8.40963e-13 0)
(1.4365e-14 9.17854e-13 0)
(1.52111e-13 1.00266e-12 0)
(2.18406e-13 9.04914e-13 0)
(1.66493e-13 8.124e-13 0)
(1.05338e-13 7.07607e-13 0)
(6.44815e-14 6.11252e-13 0)
(2.03535e-13 7.0175e-13 0)
(3.51611e-13 5.96518e-13 0)
(3.40945e-13 7.0737e-13 0)
(3.86819e-13 8.36196e-13 0)
(2.54079e-13 8.63785e-13 0)
(1.90823e-13 6.79618e-13 0)
(3.66729e-13 7.65537e-13 0)
(2.45783e-13 7.51866e-13 0)
(-1.03117e-13 6.20021e-13 0)
(-3.01617e-13 5.07164e-13 0)
(-3.44719e-13 5.69695e-13 0)
(-1.76951e-13 7.61352e-13 0)
(-1.32096e-13 6.67246e-13 0)
(-9.98349e-14 4.95534e-13 0)
(-1.47863e-13 3.52381e-13 0)
(-2.17931e-13 5.15566e-13 0)
(-1.15136e-13 5.54921e-13 0)
(-4.81669e-14 6.72827e-13 0)
(-5.03747e-14 4.96215e-13 0)
(1.98817e-14 6.55651e-13 0)
(-3.36687e-14 8.38497e-13 0)
(-2.57102e-14 8.47611e-13 0)
(1.16705e-14 7.50759e-13 0)
(1.62157e-13 5.61074e-13 0)
(1.77216e-13 4.30975e-13 0)
(2.14969e-13 4.16511e-13 0)
(3.37362e-13 5.28372e-13 0)
(3.53733e-13 5.59725e-13 0)
(4.81315e-13 6.4641e-13 0)
(3.95492e-13 6.65612e-13 0)
(1.64966e-13 4.45086e-13 0)
(3.35912e-13 4.05923e-13 0)
(3.99363e-13 5.3688e-13 0)
(5.32268e-14 4.4605e-13 0)
(-3.84922e-13 4.37231e-13 0)
(-6.11102e-13 4.63132e-13 0)
(-3.67214e-13 6.04616e-13 0)
(-4.86067e-13 5.21856e-13 0)
(-5.81457e-13 3.69276e-13 0)
(-3.68739e-13 3.57762e-13 0)
(-1.64551e-13 4.14637e-13 0)
(-4.98245e-14 4.89806e-13 0)
(2.52584e-14 5.38794e-13 0)
(1.06437e-13 5.73525e-13 0)
(2.53688e-13 6.90287e-13 0)
(3.37731e-13 8.08464e-13 0)
(5.16201e-13 7.9776e-13 0)
(4.37382e-13 6.52029e-13 0)
(3.34264e-14 2.81726e-13 0)
(1.13129e-13 3.24029e-13 0)
(3.12111e-13 2.44289e-13 0)
(1.0594e-13 8.44215e-14 0)
(-1.30176e-13 4.85523e-13 0)
(-2.63417e-13 7.74045e-13 0)
(-5.12559e-13 7.57897e-13 0)
(-6.13092e-13 5.88425e-13 0)
(-3.4157e-13 5.56387e-13 0)
(-3.1143e-13 5.89225e-13 0)
(-9.00582e-14 4.62517e-13 0)
(6.2328e-14 5.97728e-13 0)
(-1.24019e-13 4.64986e-13 0)
(-1.60452e-13 6.96477e-13 0)
(-1.21998e-13 5.20084e-13 0)
(-7.38564e-14 5.39569e-13 0)
(2.15081e-13 5.51555e-13 0)
(3.48673e-13 6.4692e-13 0)
(-3.52566e-14 5.82904e-13 0)
(-2.35947e-13 8.10889e-13 0)
(-1.94646e-13 8.0169e-13 0)
(-1.11346e-13 9.43211e-13 0)
(-4.34944e-14 1.05819e-12 0)
(-3.67982e-14 1.00693e-12 0)
(-8.12054e-14 9.51385e-13 0)
(2.18423e-14 8.26653e-13 0)
(-1.14084e-14 6.14084e-13 0)
(-4.33368e-14 7.03943e-13 0)
(6.98734e-14 6.42986e-13 0)
(4.09133e-14 5.77151e-13 0)
(3.10462e-13 6.4758e-13 0)
(1.52051e-13 7.0692e-13 0)
(-2.62734e-14 6.5346e-13 0)
(1.78185e-13 6.83285e-13 0)
(-3.52705e-14 8.13412e-13 0)
(-2.94204e-13 7.69288e-13 0)
(-1.87822e-13 5.27478e-13 0)
(-1.00383e-13 6.30296e-13 0)
(9.01832e-14 8.56087e-13 0)
(-1.21167e-13 7.85583e-13 0)
(-2.44061e-13 6.77133e-13 0)
(-1.7365e-14 5.15151e-13 0)
(-2.49489e-14 5.66343e-13 0)
(-8.49191e-14 5.48097e-13 0)
(1.06457e-14 7.23364e-13 0)
(6.7823e-14 6.6671e-13 0)
(1.09826e-13 7.23453e-13 0)
(1.05116e-13 8.22997e-13 0)
(9.24333e-14 7.90622e-13 0)
(2.618e-14 6.7887e-13 0)
(-1.41759e-13 6.25054e-13 0)
(-1.13313e-13 4.13938e-13 0)
(5.38451e-14 3.68496e-13 0)
(1.33277e-13 4.6008e-13 0)
(1.62335e-13 4.6021e-13 0)
(2.88541e-13 6.73611e-13 0)
(2.35014e-13 7.45025e-13 0)
(1.78017e-13 6.3042e-13 0)
(2.9405e-13 4.48165e-13 0)
(3.43469e-13 4.75725e-13 0)
(3.17462e-13 2.83501e-13 0)
(1.9621e-13 1.42193e-13 0)
(3.29932e-14 3.0178e-13 0)
(1.07529e-13 6.2742e-13 0)
(-8.26819e-15 5.08941e-13 0)
(3.51773e-13 4.56745e-13 0)
(6.22468e-13 5.13472e-13 0)
(5.88425e-13 4.12265e-13 0)
(5.13927e-13 3.68611e-13 0)
(7.42695e-13 3.54562e-13 0)
(8.00041e-13 2.14787e-13 0)
(4.92747e-13 3.03153e-13 0)
(-1.06328e-13 3.02753e-13 0)
(-2.92917e-13 1.64001e-13 0)
(6.9415e-14 2.28248e-13 0)
(1.54131e-13 4.24611e-13 0)
(-3.10536e-13 4.62503e-13 0)
(-6.598e-13 5.27018e-13 0)
(-4.70346e-13 5.39697e-13 0)
(-5.48329e-13 5.28224e-13 0)
(-5.34758e-13 4.99213e-13 0)
(-2.24071e-13 6.58876e-13 0)
(1.25803e-13 7.32588e-13 0)
(9.80734e-14 9.15724e-13 0)
(-1.52425e-15 8.73598e-13 0)
(-2.22529e-13 8.38182e-13 0)
(-3.44836e-13 6.90998e-13 0)
(-2.97784e-13 6.49386e-13 0)
(-3.85726e-13 7.09669e-13 0)
(-1.28895e-13 7.13884e-13 0)
(1.18203e-13 7.61517e-13 0)
(3.7427e-13 7.14267e-13 0)
(2.81424e-13 7.29384e-13 0)
(9.63254e-14 5.57128e-13 0)
(1.84069e-14 3.96869e-13 0)
(-2.06533e-13 4.59841e-13 0)
(-4.00352e-13 5.44987e-13 0)
(-4.45677e-13 6.31052e-13 0)
(-1.17608e-13 6.88428e-13 0)
(1.91123e-13 6.82112e-13 0)
(2.16736e-13 6.89095e-13 0)
(2.28059e-14 7.3214e-13 0)
(-1.30527e-13 6.63801e-13 0)
(8.53298e-14 7.50387e-13 0)
(1.8615e-13 8.74046e-13 0)
(2.08487e-13 8.90265e-13 0)
(5.37304e-13 9.60064e-13 0)
(7.77377e-13 1.11774e-12 0)
(5.43848e-13 1.03904e-12 0)
(2.23801e-13 7.99195e-13 0)
(-4.19314e-14 9.79956e-13 0)
(-1.20001e-13 1.08914e-12 0)
(1.49888e-13 1.15615e-12 0)
(1.13702e-13 9.90135e-13 0)
(7.06929e-14 8.92468e-13 0)
(1.09945e-13 8.82239e-13 0)
(8.8221e-14 8.14657e-13 0)
(2.0027e-14 8.84945e-13 0)
(9.91745e-14 8.98148e-13 0)
(2.38665e-13 8.14875e-13 0)
(3.85701e-13 7.58483e-13 0)
(4.20185e-13 7.13611e-13 0)
(1.54382e-13 7.89083e-13 0)
(1.30018e-13 6.74818e-13 0)
(3.90297e-13 7.24099e-13 0)
(7.00147e-14 5.81748e-13 0)
(-2.84746e-13 5.21294e-13 0)
(-1.99088e-13 5.34712e-13 0)
(-4.02349e-14 7.62876e-13 0)
(-1.60575e-13 8.81576e-13 0)
(-3.173e-13 8.10651e-13 0)
(-1.80971e-13 6.51503e-13 0)
(-8.77799e-15 6.49035e-13 0)
(-4.52808e-14 8.24785e-13 0)
(-1.11785e-13 7.64095e-13 0)
(-7.4973e-14 6.1785e-13 0)
(-2.62547e-14 7.03715e-13 0)
(2.3865e-13 7.56772e-13 0)
(8.16516e-15 8.66111e-13 0)
(-1.1809e-13 8.21832e-13 0)
(-9.23292e-14 7.18304e-13 0)
(1.3703e-14 7.50358e-13 0)
(1.12832e-13 8.07351e-13 0)
(2.94382e-13 8.73236e-13 0)
(3.73042e-13 8.51969e-13 0)
(4.32985e-13 8.82466e-13 0)
(4.81692e-13 9.30328e-13 0)
(1.04863e-13 7.72175e-13 0)
(-6.52222e-14 4.97311e-13 0)
(3.7053e-13 5.4207e-13 0)
(4.08934e-13 4.56852e-13 0)
(4.95248e-14 3.36373e-13 0)
(-3.20404e-13 4.23152e-13 0)
(-4.47246e-13 4.36743e-13 0)
(-3.94679e-13 5.31974e-13 0)
(-6.08824e-13 4.69779e-13 0)
(-5.02455e-13 4.85612e-13 0)
(-1.58712e-13 5.5582e-13 0)
(-6.78572e-14 7.57499e-13 0)
(2.96115e-14 7.21091e-13 0)
(7.67255e-14 7.87963e-13 0)
(1.99221e-13 7.84591e-13 0)
(4.37086e-13 9.07314e-13 0)
(3.40637e-13 9.52287e-13 0)
(3.48068e-13 8.84125e-13 0)
(1.42444e-13 6.1762e-13 0)
(-1.27088e-13 4.60146e-13 0)
(2.50396e-14 5.26798e-13 0)
(1.18476e-13 3.46461e-13 0)
(2.00861e-13 3.98759e-13 0)
(2.08904e-13 6.64463e-13 0)
(-1.49628e-13 7.67578e-13 0)
(-6.13308e-13 8.04681e-13 0)
(-6.21373e-13 8.24478e-13 0)
(-2.70426e-13 7.51486e-13 0)
(-2.20541e-13 6.93778e-13 0)
(-2.01538e-13 6.39453e-13 0)
(-8.47831e-14 5.1547e-13 0)
(-1.10154e-13 5.70127e-13 0)
(-1.4579e-13 5.73894e-13 0)
(-1.73059e-13 6.26183e-13 0)
(1.06427e-13 6.80389e-13 0)
(3.12033e-13 8.11698e-13 0)
(2.07616e-13 8.70881e-13 0)
(1.21194e-13 7.28146e-13 0)
(2.60186e-14 9.30767e-13 0)
(-8.48826e-14 1.11074e-12 0)
(4.12134e-14 1.08017e-12 0)
(-5.28555e-14 1.17457e-12 0)
(-1.61648e-13 1.09132e-12 0)
(-1.51632e-13 9.38814e-13 0)
(-1.85225e-13 9.29435e-13 0)
(-1.31797e-13 8.4562e-13 0)
(6.43875e-15 8.17975e-13 0)
(3.28658e-14 6.48966e-13 0)
(1.23782e-13 6.38526e-13 0)
(2.16432e-13 6.98747e-13 0)
(4.21857e-14 7.39451e-13 0)
(1.04852e-14 8.29405e-13 0)
(2.72887e-13 8.36423e-13 0)
(7.86373e-14 8.02358e-13 0)
(-3.36693e-13 9.3079e-13 0)
(-2.15478e-13 9.2194e-13 0)
(3.75178e-14 1.0164e-12 0)
(7.80062e-15 1.07838e-12 0)
(-1.88931e-13 8.9281e-13 0)
(-2.15092e-13 8.99514e-13 0)
(-2.86014e-14 7.67829e-13 0)
(-1.7067e-14 6.86993e-13 0)
(4.33864e-14 7.586e-13 0)
(9.76738e-14 9.83621e-13 0)
(3.71281e-14 1.12986e-12 0)
(2.20874e-13 1.11058e-12 0)
(1.30545e-13 1.0591e-12 0)
(7.61308e-14 9.42516e-13 0)
(-7.5407e-14 7.72254e-13 0)
(-2.12369e-13 6.19997e-13 0)
(-1.84251e-13 5.79725e-13 0)
(3.90861e-14 6.1227e-13 0)
(1.71744e-13 5.95931e-13 0)
(2.31937e-13 7.96203e-13 0)
(3.51782e-13 9.17711e-13 0)
(1.6393e-13 8.66476e-13 0)
(-1.35622e-14 8.04803e-13 0)
(2.4977e-13 6.66339e-13 0)
(2.53848e-13 5.30025e-13 0)
(9.03632e-14 4.76078e-13 0)
(1.13771e-13 3.49261e-13 0)
(2.56828e-13 3.68118e-13 0)
(1.95331e-13 5.2088e-13 0)
(-1.39042e-13 4.7822e-13 0)
(4.23216e-13 8.92325e-13 0)
(4.99964e-13 8.62472e-13 0)
(4.5424e-13 7.57285e-13 0)
(5.77101e-13 7.45416e-13 0)
(7.46162e-13 6.31576e-13 0)
(7.4848e-13 4.85961e-13 0)
(4.21026e-13 3.94237e-13 0)
(-1.53771e-13 3.99326e-13 0)
(-2.9687e-13 5.04877e-13 0)
(1.15498e-13 5.17227e-13 0)
(2.44205e-13 5.5643e-13 0)
(-2.01648e-13 5.14613e-13 0)
(-5.40369e-13 7.78479e-13 0)
(-5.34295e-13 7.88317e-13 0)
(-6.29774e-13 7.46496e-13 0)
(-4.90356e-13 7.3602e-13 0)
(-1.19928e-13 8.68337e-13 0)
(2.45799e-13 9.53282e-13 0)
(1.40711e-13 8.80073e-13 0)
(-1.12158e-13 9.36447e-13 0)
(-2.51052e-13 8.05574e-13 0)
(-3.80445e-13 9.39488e-13 0)
(-2.79572e-13 9.12392e-13 0)
(-2.90975e-13 9.75915e-13 0)
(-8.66398e-14 1.02483e-12 0)
(1.77039e-13 1.075e-12 0)
(3.41534e-13 1.07428e-12 0)
(1.57951e-13 9.59366e-13 0)
(-9.38101e-14 9.2552e-13 0)
(-2.37816e-14 7.57846e-13 0)
(-9.35676e-14 8.87574e-13 0)
(-3.24116e-13 9.34941e-13 0)
(-3.7913e-13 1.07002e-12 0)
(-1.22979e-13 1.11954e-12 0)
(2.24524e-13 1.10467e-12 0)
(4.02912e-13 1.09583e-12 0)
(2.78398e-14 1.14506e-12 0)
(-2.02601e-13 1.06965e-12 0)
(1.25225e-13 1.1474e-12 0)
(2.23032e-13 1.10557e-12 0)
(2.88413e-13 1.21615e-12 0)
(6.88152e-13 1.15836e-12 0)
(8.61482e-13 1.15039e-12 0)
(3.65814e-13 1.00479e-12 0)
(1.11905e-13 1.02649e-12 0)
(4.62214e-14 1.00372e-12 0)
(1.07418e-14 1.14967e-12 0)
(4.36852e-14 1.18668e-12 0)
(-4.28305e-14 1.0321e-12 0)
(5.18146e-14 8.22627e-13 0)
(1.24896e-13 8.05913e-13 0)
(1.43743e-13 9.00547e-13 0)
(1.12869e-13 1.06412e-12 0)
(7.80197e-14 1.09978e-12 0)
(1.44334e-13 1.12066e-12 0)
(2.42612e-13 9.2184e-13 0)
(3.66451e-13 8.23543e-13 0)
(1.65985e-13 7.06429e-13 0)
(1.29886e-13 8.05579e-13 0)
(3.19892e-13 7.88249e-13 0)
(1.64187e-14 6.8288e-13 0)
(-2.32607e-13 6.56073e-13 0)
(-6.16801e-14 7.87951e-13 0)
(4.55607e-14 8.75699e-13 0)
(-1.49552e-13 7.88539e-13 0)
(-4.02806e-13 9.16425e-13 0)
(-2.56468e-13 8.43005e-13 0)
(1.17919e-13 8.83887e-13 0)
(-3.82991e-14 9.4183e-13 0)
(-2.88704e-13 9.83459e-13 0)
(-1.09019e-13 7.77986e-13 0)
(1.1566e-13 8.66773e-13 0)
(2.57096e-13 7.77647e-13 0)
(4.06531e-14 6.99989e-13 0)
(-1.74601e-13 6.92529e-13 0)
(-1.05231e-13 6.40335e-13 0)
(1.72612e-13 8.20048e-13 0)
(2.16599e-13 1.0214e-12 0)
(2.36031e-13 1.12968e-12 0)
(3.7102e-13 1.12664e-12 0)
(4.59448e-13 1.11243e-12 0)
(4.01278e-13 9.93095e-13 0)
(-6.04594e-14 8.69105e-13 0)
(-1.35395e-13 7.70656e-13 0)
(3.33572e-13 7.91139e-13 0)
(2.66829e-13 5.50074e-13 0)
(-4.43614e-14 3.3995e-13 0)
(-3.2993e-13 4.26366e-13 0)
(-4.17835e-13 3.64357e-13 0)
(-3.62489e-13 4.57333e-13 0)
(-5.68384e-13 4.83015e-13 0)
(-4.04017e-13 6.24642e-13 0)
(3.83571e-14 7.44156e-13 0)
(-3.59616e-14 8.6106e-13 0)
(-3.89833e-14 9.13514e-13 0)
(6.86688e-14 8.58591e-13 0)
(2.41851e-13 9.92849e-13 0)
(5.22464e-13 1.0263e-12 0)
(2.7754e-13 8.47058e-13 0)
(2.57055e-13 6.61013e-13 0)
(4.72268e-14 6.63964e-13 0)
(-8.15241e-14 7.99792e-13 0)
(2.97689e-14 8.59094e-13 0)
(1.14967e-13 7.19369e-13 0)
(3.86474e-13 8.25666e-13 0)
(2.93946e-13 6.81632e-13 0)
(-1.05067e-13 6.33295e-13 0)
(-4.86987e-13 7.31251e-13 0)
(-7.47017e-13 8.54719e-13 0)
(-3.92449e-13 8.35844e-13 0)
(-2.26887e-13 8.59357e-13 0)
(-2.33101e-13 1.00421e-12 0)
(-1.15937e-13 9.02584e-13 0)
(-1.11968e-13 9.30372e-13 0)
(-1.05587e-13 8.2826e-13 0)
(-7.24534e-14 9.64263e-13 0)
(1.6444e-13 1.02743e-12 0)
(4.70869e-13 1.08966e-12 0)
(2.03353e-13 1.04313e-12 0)
(6.7668e-14 1.02483e-12 0)
(1.83793e-13 1.00795e-12 0)
(-2.1527e-14 1.18699e-12 0)
(-5.36878e-14 1.12654e-12 0)
(-3.88328e-14 9.35048e-13 0)
(-2.17919e-13 8.429e-13 0)
(-1.96976e-13 7.9144e-13 0)
(-8.92934e-14 9.19866e-13 0)
(-1.07407e-13 1.10444e-12 0)
(-1.60736e-13 1.10492e-12 0)
(-9.47506e-14 9.64912e-13 0)
(7.84788e-14 9.3953e-13 0)
(2.52267e-13 8.46698e-13 0)
(1.4534e-13 8.49392e-13 0)
(5.41402e-15 9.97966e-13 0)
(1.68081e-13 1.0342e-12 0)
(7.08534e-14 8.8219e-13 0)
(-2.10446e-13 9.16891e-13 0)
(-5.09745e-14 1.02803e-12 0)
(1.49498e-13 1.05072e-12 0)
(-2.19301e-14 9.69239e-13 0)
(-2.41556e-13 9.21271e-13 0)
(-2.9669e-13 8.61045e-13 0)
(-2.16554e-13 9.47877e-13 0)
(-1.47461e-14 9.75233e-13 0)
(1.80168e-13 1.07602e-12 0)
(3.61478e-13 1.04623e-12 0)
(1.51839e-13 1.14522e-12 0)
(4.39439e-14 1.11199e-12 0)
(-6.82295e-14 8.84434e-13 0)
(-8.1731e-14 6.48136e-13 0)
(-1.82136e-13 5.65594e-13 0)
(-1.90656e-13 6.78728e-13 0)
(-1.31539e-14 8.82088e-13 0)
(1.17097e-13 9.83647e-13 0)
(2.85205e-13 9.19162e-13 0)
(3.69615e-13 9.96588e-13 0)
(2.92721e-13 1.02088e-12 0)
(9.36788e-14 9.47452e-13 0)
(-1.03544e-13 9.46312e-13 0)
(6.46802e-14 8.33464e-13 0)
(1.93151e-13 7.11661e-13 0)
(9.01365e-14 7.53074e-13 0)
(6.11361e-14 7.06323e-13 0)
(2.34535e-13 6.17838e-13 0)
(2.31236e-13 4.45241e-13 0)
(-8.91225e-16 5.72902e-13 0)
(3.83124e-13 9.68367e-13 0)
(5.53913e-13 9.04767e-13 0)
(4.67882e-13 1.03782e-12 0)
(3.48996e-13 9.44478e-13 0)
(5.10378e-13 8.41037e-13 0)
(5.89e-13 7.37984e-13 0)
(3.5106e-13 5.11017e-13 0)
(-5.5993e-14 4.22965e-13 0)
(-1.04847e-13 5.68289e-13 0)
(1.43412e-13 5.70246e-13 0)
(1.72e-13 6.19032e-13 0)
(-1.93718e-13 5.47853e-13 0)
(-5.08007e-13 7.48765e-13 0)
(-4.72386e-13 8.58723e-13 0)
(-5.06869e-13 8.57616e-13 0)
(-4.68819e-13 7.63875e-13 0)
(-7.08393e-14 7.45312e-13 0)
(1.29152e-13 8.80458e-13 0)
(2.98508e-14 7.92206e-13 0)
(-1.38897e-13 9.22706e-13 0)
(-1.55257e-13 9.06902e-13 0)
(-2.11975e-13 1.13055e-12 0)
(-2.63754e-13 1.24462e-12 0)
(-2.34807e-13 1.14125e-12 0)
(-3.41521e-14 1.14487e-12 0)
(1.27751e-13 1.20441e-12 0)
(2.14456e-13 1.08335e-12 0)
(1.4398e-13 9.07377e-13 0)
(-7.78434e-14 9.611e-13 0)
(-8.89404e-14 1.01169e-12 0)
(-7.80605e-14 1.01618e-12 0)
(-2.06115e-13 1.03665e-12 0)
(-2.60393e-13 1.16474e-12 0)
(-1.16443e-13 1.09082e-12 0)
(1.05042e-13 9.90892e-13 0)
(1.91874e-13 9.78468e-13 0)
(9.64793e-14 9.54162e-13 0)
(-1.06388e-14 1.13613e-12 0)
(7.77218e-14 1.19487e-12 0)
(1.69042e-13 1.30928e-12 0)
(2.37042e-13 1.37484e-12 0)
(5.04912e-13 1.21526e-12 0)
(6.52056e-13 9.07805e-13 0)
(4.28685e-13 8.22391e-13 0)
(1.92063e-13 9.74923e-13 0)
(1.27569e-13 9.02985e-13 0)
(1.05191e-13 1.00083e-12 0)
(1.0855e-15 8.95284e-13 0)
(-1.9848e-13 8.89359e-13 0)
(-1.22861e-13 7.57344e-13 0)
(2.1224e-13 8.68751e-13 0)
(2.97892e-13 1.05712e-12 0)
(2.22789e-13 1.02879e-12 0)
(1.39244e-13 1.09261e-12 0)
(9.11611e-14 9.83184e-13 0)
(1.63397e-13 8.52224e-13 0)
(1.82403e-13 8.89685e-13 0)
(1.16912e-13 7.3752e-13 0)
(1.36633e-13 9.19904e-13 0)
(1.07253e-13 6.62844e-13 0)
(-5.1465e-14 7.06363e-13 0)
(-8.31148e-14 7.14438e-13 0)
(-1.07441e-14 7.79182e-13 0)
(-1.24726e-13 7.00847e-13 0)
(-1.37614e-13 5.56531e-13 0)
(-2.82959e-13 6.85351e-13 0)
(-1.4941e-13 8.18998e-13 0)
(1.834e-13 9.70927e-13 0)
(5.24966e-14 8.23393e-13 0)
(-2.3177e-13 9.89441e-13 0)
(-1.60862e-13 1.07567e-12 0)
(9.53403e-14 1.0388e-12 0)
(3.80005e-14 7.85554e-13 0)
(-1.12378e-13 4.61605e-13 0)
(-2.14011e-13 5.45017e-13 0)
(3.22881e-14 5.88556e-13 0)
(3.96598e-13 7.64092e-13 0)
(3.81695e-13 9.35885e-13 0)
(3.54403e-13 1.03365e-12 0)
(2.80092e-13 9.8947e-13 0)
(2.09076e-13 1.01033e-12 0)
(1.61248e-13 7.44349e-13 0)
(-1.84194e-13 5.86964e-13 0)
(-1.3036e-13 7.05366e-13 0)
(1.68865e-13 6.42613e-13 0)
(-5.43914e-14 4.19012e-13 0)
(-1.38228e-13 3.0797e-13 0)
(-2.56758e-13 2.03972e-13 0)
(-2.89759e-13 4.59149e-13 0)
(-2.8217e-13 4.39575e-13 0)
(-5.34857e-13 4.76493e-13 0)
(-2.48132e-13 5.06948e-13 0)
(1.46426e-13 5.74826e-13 0)
(1.31312e-13 6.9587e-13 0)
(8.34828e-15 8.62059e-13 0)
(1.03863e-13 6.94588e-13 0)
(3.5419e-13 7.40654e-13 0)
(2.97099e-13 8.01092e-13 0)
(1.13572e-15 6.73515e-13 0)
(8.62025e-14 5.95237e-13 0)
(2.29611e-13 5.25515e-13 0)
(1.29845e-13 6.9764e-13 0)
(1.61004e-14 8.32324e-13 0)
(7.84967e-14 8.96564e-13 0)
(1.34206e-13 8.0046e-13 0)
(5.96952e-14 4.64825e-13 0)
(-1.6249e-13 3.76187e-13 0)
(-4.82496e-13 4.16948e-13 0)
(-5.0533e-13 6.40609e-13 0)
(-1.98153e-13 7.4285e-13 0)
(-3.60611e-14 9.0082e-13 0)
(-1.07956e-13 1.07482e-12 0)
(-1.4282e-13 1.06602e-12 0)
(-1.8084e-13 1.00447e-12 0)
(-1.1579e-13 1.07881e-12 0)
(-3.36959e-14 9.82519e-13 0)
(1.93198e-13 9.07897e-13 0)
(3.15461e-13 1.00149e-12 0)
(1.46186e-13 8.99204e-13 0)
(4.02764e-14 1.08633e-12 0)
(1.48233e-13 1.0021e-12 0)
(8.37198e-14 9.86217e-13 0)
(-1.79419e-13 9.67971e-13 0)
(-3.08068e-13 7.75974e-13 0)
(-3.90727e-13 6.42261e-13 0)
(-9.53364e-14 7.69552e-13 0)
(1.35188e-13 8.8558e-13 0)
(6.2442e-14 1.12266e-12 0)
(-1.76349e-13 1.19926e-12 0)
(-1.7319e-13 1.22563e-12 0)
(-2.80604e-14 1.24839e-12 0)
(8.06105e-14 1.09397e-12 0)
(3.05748e-14 8.49491e-13 0)
(1.11995e-13 7.92711e-13 0)
(1.41881e-13 8.35108e-13 0)
(-1.00215e-14 7.91853e-13 0)
(-9.73416e-14 8.29679e-13 0)
(-7.25245e-14 8.60862e-13 0)
(2.74062e-14 8.31377e-13 0)
(-1.07645e-13 7.48055e-13 0)
(-2.92583e-13 7.70931e-13 0)
(-1.40804e-13 6.53644e-13 0)
(7.27302e-14 8.90227e-13 0)
(1.65343e-13 1.03062e-12 0)
(8.47063e-14 1.10817e-12 0)
(5.63603e-14 8.22406e-13 0)
(3.9525e-14 7.68332e-13 0)
(-8.1736e-14 6.79222e-13 0)
(-2.13614e-13 3.97531e-13 0)
(-2.50209e-13 4.26814e-13 0)
(-2.65498e-14 5.49568e-13 0)
(9.62976e-14 9.36673e-13 0)
(1.8231e-13 1.17198e-12 0)
(5.36696e-14 1.24072e-12 0)
(1.73131e-13 1.17995e-12 0)
(3.4543e-13 1.11973e-12 0)
(2.51045e-13 9.24021e-13 0)
(-2.03474e-14 7.78595e-13 0)
(-7.98288e-14 6.9989e-13 0)
(6.9392e-14 8.47081e-13 0)
(1.66509e-13 7.47451e-13 0)
(9.52944e-14 6.96848e-13 0)
(3.06005e-14 7.94464e-13 0)
(-9.52926e-15 7.16187e-13 0)
(1.41174e-13 4.75991e-13 0)
(1.0349e-13 5.10369e-13 0)
(3.83404e-13 7.20516e-13 0)
(5.32835e-13 5.96063e-13 0)
(4.91564e-13 5.7219e-13 0)
(3.73079e-13 7.38704e-13 0)
(5.29377e-13 7.77771e-13 0)
(4.28811e-13 6.67539e-13 0)
(1.34379e-13 4.46909e-13 0)
(-3.81177e-14 3.90957e-13 0)
(-5.967e-14 3.20796e-13 0)
(1.53649e-13 2.91979e-13 0)
(1.63785e-13 2.3019e-13 0)
(-9.5964e-14 1.62442e-13 0)
(-2.87629e-13 3.09455e-13 0)
(-4.15501e-13 5.7213e-13 0)
(-6.46196e-13 5.01931e-13 0)
(-4.83547e-13 4.71214e-13 0)
(-3.94765e-14 4.30571e-13 0)
(1.8143e-13 4.92614e-13 0)
(1.37932e-13 6.00738e-13 0)
(2.78452e-15 5.46747e-13 0)
(-1.11541e-13 5.88022e-13 0)
(-1.47224e-13 6.7367e-13 0)
(-2.92344e-13 8.26351e-13 0)
(-2.76824e-13 7.68705e-13 0)
(-9.35716e-16 7.98867e-13 0)
(1.28916e-13 7.11049e-13 0)
(9.96064e-14 6.04563e-13 0)
(4.71788e-14 5.42155e-13 0)
(-9.70138e-14 5.73196e-13 0)
(-6.35777e-14 6.08714e-13 0)
(-9.65644e-14 6.90363e-13 0)
(-2.13881e-13 7.02539e-13 0)
(-2.98519e-13 7.06842e-13 0)
(-1.78553e-13 6.69646e-13 0)
(1.32545e-13 5.91442e-13 0)
(2.5793e-13 6.12171e-13 0)
(1.7094e-13 4.68668e-13 0)
(4.03482e-14 5.10157e-13 0)
(1.78848e-13 6.54538e-13 0)
(2.6862e-13 9.8765e-13 0)
(2.3347e-13 1.05589e-12 0)
(3.25013e-13 9.54692e-13 0)
(4.53075e-13 6.68432e-13 0)
(3.82503e-13 4.55391e-13 0)
(1.55947e-13 4.34796e-13 0)
(6.81226e-14 4.58344e-13 0)
(-5.15906e-15 5.95284e-13 0)
(-1.11787e-13 5.49277e-13 0)
(-2.34663e-13 4.71551e-13 0)
(5.37792e-14 6.69089e-13 0)
(4.29556e-13 8.13381e-13 0)
(2.5871e-13 8.51216e-13 0)
(1.61266e-13 7.13144e-13 0)
(3.631e-15 8.27496e-13 0)
(-7.01443e-14 7.46647e-13 0)
(1.88136e-13 6.07804e-13 0)
(2.79788e-13 5.89882e-13 0)
(1.76658e-13 5.83996e-13 0)
(6.5862e-15 4.98509e-13 0)
(6.19255e-14 3.86774e-13 0)
(4.67736e-14 4.40531e-13 0)
(-1.31417e-13 3.2694e-13 0)
(-8.98358e-14 2.62957e-13 0)
(-2.04014e-13 2.02883e-13 0)
(-1.38059e-13 2.81953e-13 0)
(-1.45037e-13 2.91074e-13 0)
(-7.53854e-14 5.21273e-13 0)
(1.59277e-13 5.70131e-13 0)
(5.17455e-14 4.13357e-13 0)
(-9.17255e-14 4.12316e-13 0)
(-8.46739e-14 5.38269e-13 0)
(-5.011e-14 5.05514e-13 0)
(-2.05004e-13 3.67887e-13 0)
(-1.33221e-13 2.64051e-13 0)
(-5.98923e-14 3.82339e-13 0)
(1.66033e-13 6.27394e-13 0)
(6.08924e-13 7.98041e-13 0)
(4.45863e-13 7.57162e-13 0)
(2.44707e-13 4.44254e-13 0)
(2.37482e-13 3.38824e-13 0)
(1.38104e-13 4.11574e-13 0)
(-7.33719e-14 2.62127e-13 0)
(-1.35546e-13 2.42444e-13 0)
(-8.25237e-14 2.547e-13 0)
(2.86157e-14 1.49097e-13 0)
(-5.57306e-14 4.11466e-14 0)
(-2.44338e-13 2.11907e-14 0)
(-1.63043e-13 8.58364e-14 0)
(-1.73049e-13 2.07091e-13 0)
(-3.29091e-13 1.2483e-13 0)
(-5.60453e-13 1.38711e-13 0)
(-2.60743e-13 3.20428e-13 0)
(2.77943e-13 4.5373e-13 0)
(1.86111e-13 4.25332e-13 0)
(-5.64945e-14 3.13361e-13 0)
(5.97512e-15 3.12135e-13 0)
(4.1066e-13 3.06831e-13 0)
(3.32779e-13 2.73313e-13 0)
(3.9114e-14 1.32027e-13 0)
(7.64583e-14 2.30423e-13 0)
(1.35724e-13 1.26937e-13 0)
(2.27725e-13 1.83892e-13 0)
(1.60643e-13 3.59256e-13 0)
(4.89317e-14 4.44332e-13 0)
(1.92783e-14 2.15211e-13 0)
(-1.48095e-13 1.41418e-13 0)
(-2.08256e-13 4.40204e-14 0)
(-2.90152e-13 1.09539e-14 0)
(-4.51976e-13 1.12245e-13 0)
(-1.9416e-13 3.5392e-13 0)
(9.40872e-16 5.35012e-13 0)
(-9.06828e-14 5.93642e-13 0)
(-1.71379e-13 5.5067e-13 0)
(-5.55925e-14 5.6526e-13 0)
(-5.87606e-14 6.83556e-13 0)
(-1.38571e-13 6.10468e-13 0)
(1.79738e-13 6.17923e-13 0)
(3.86326e-13 7.43895e-13 0)
(2.63167e-13 6.56009e-13 0)
(1.02536e-13 6.59634e-13 0)
(8.44177e-14 6.49329e-13 0)
(-4.60245e-15 5.40879e-13 0)
(-1.84632e-13 4.66312e-13 0)
(-3.70744e-13 4.01428e-13 0)
(-2.6392e-13 5.48241e-13 0)
(2.937e-14 8.13177e-13 0)
(2.30715e-13 8.01918e-13 0)
(1.32095e-13 8.9392e-13 0)
(-1.50867e-13 8.06966e-13 0)
(-8.51078e-14 8.72486e-13 0)
(1.01387e-14 8.18244e-13 0)
(-7.26721e-14 8.08142e-13 0)
(-2.1382e-13 6.77866e-13 0)
(-4.54213e-14 4.63267e-13 0)
(1.70868e-13 4.54851e-13 0)
(1.30125e-13 4.24535e-13 0)
(-7.38902e-14 3.86407e-13 0)
(-5.10623e-14 3.11623e-13 0)
(-1.25005e-14 4.01465e-13 0)
(-1.00534e-13 3.57885e-13 0)
(-3.42064e-13 4.93362e-13 0)
(-2.06278e-13 5.23321e-13 0)
(1.17089e-13 6.87984e-13 0)
(1.99591e-13 6.47209e-13 0)
(-1.27471e-14 5.7301e-13 0)
(-9.50637e-15 4.93003e-13 0)
(1.89995e-14 4.73786e-13 0)
(-2.80765e-13 2.7023e-13 0)
(-3.12793e-13 3.09892e-13 0)
(-2.9333e-14 4.30493e-13 0)
(1.8238e-13 5.74226e-13 0)
(2.15576e-13 6.87125e-13 0)
(1.80222e-13 8.38751e-13 0)
(1.3083e-13 7.42386e-13 0)
(1.77441e-13 7.64851e-13 0)
(1.6927e-13 8.24288e-13 0)
(1.48287e-14 6.10724e-13 0)
(-1.45586e-13 4.11176e-13 0)
(-1.87869e-14 3.40084e-13 0)
(1.02494e-13 4.08426e-13 0)
(-5.04298e-15 3.58032e-13 0)
(7.44479e-14 1.9285e-13 0)
(1.13687e-13 2.59998e-13 0)
(3.53251e-14 1.94221e-13 0)
(1.16551e-13 3.13118e-13 0)
(1.43601e-17 2.35713e-13 0)
(4.3449e-13 6.64871e-13 0)
(3.6903e-13 5.94191e-13 0)
(6.39688e-13 4.85086e-13 0)
(5.82253e-13 5.5942e-13 0)
(4.12329e-13 5.57994e-13 0)
(2.08548e-13 4.39681e-13 0)
(8.4172e-14 3.47993e-13 0)
(-8.9686e-14 4.3841e-13 0)
(-1.65577e-13 3.75806e-13 0)
(5.56879e-14 3.47314e-13 0)
(-4.89671e-14 1.0109e-13 0)
(-1.54161e-13 9.51674e-14 0)
(-2.03996e-14 3.11795e-14 0)
(-2.78711e-13 1.79988e-13 0)
(-6.18596e-13 1.88389e-13 0)
(-4.38107e-13 4.94279e-13 0)
(-3.67534e-14 5.39388e-13 0)
(2.48091e-13 6.11326e-13 0)
(9.31177e-14 5.32213e-13 0)
(-1.82719e-13 4.09099e-13 0)
(-2.47488e-14 3.6301e-13 0)
(6.52e-14 4.52341e-13 0)
(-1.91832e-13 5.29363e-13 0)
(-2.75453e-13 7.99257e-13 0)
(-8.32555e-14 8.60999e-13 0)
(-7.07757e-14 6.9373e-13 0)
(8.60819e-15 5.87786e-13 0)
(6.42727e-14 6.01241e-13 0)
(-3.00192e-14 6.17832e-13 0)
(5.63237e-14 5.34493e-13 0)
(6.36636e-14 5.04555e-13 0)
(-1.67848e-13 4.51976e-13 0)
(-2.21688e-13 5.27396e-13 0)
(-1.26276e-13 5.98913e-13 0)
(8.20488e-14 6.13841e-13 0)
(3.86367e-14 4.26669e-13 0)
(-2.02446e-14 4.83117e-13 0)
(1.98534e-13 4.51919e-13 0)
(4.70638e-13 6.24698e-13 0)
(5.07345e-13 5.76071e-13 0)
(2.11194e-13 7.17924e-13 0)
(9.4792e-14 7.21683e-13 0)
(1.56144e-13 6.37178e-13 0)