/*--------------------------------*- C++ -*----------------------------------*\
  =========                 |
  \\      /  F ield         | OpenFOAM: The Open Source CFD Toolbox
   \\    /   O peration     | Website:  https://openfoam.org
    \\  /    A nd           | Version:  13
     \\/     M anipulation  |
\*---------------------------------------------------------------------------*/
FoamFile
{
    format      ascii;
    class       volVectorField;
    location    "0.0007";
    object      U;
}
// * * * * * * * * * * * * * * * * * * * * * * * * * * * * * * * * * * * * * //

dimensions      [0 1 -1 0 0 0 0];

internalField   nonuniform List<vector> 
33333
(
(9.18242e-14 -7.47787e-14 0)
(-5.60756e-14 -4.45493e-14 0)
(-1.9381e-14 2.07419e-14 0)
(-6.23319e-14 4.69859e-14 0)
(-6.49177e-14 5.44118e-14 0)
(1.46243e-13 5.66616e-14 0)
(6.93766e-14 -7.57714e-14 0)
(-1.63241e-14 -7.17324e-14 0)
(-1.20173e-14 -9.79769e-14 0)
(3.81618e-14 -5.68066e-14 0)
(1.07824e-13 -8.31528e-14 0)
(2.02484e-14 -6.80778e-14 0)
(2.99988e-14 -3.02248e-14 0)
(-5.18999e-14 -2.26162e-14 0)
(-1.35879e-13 2.21511e-14 0)
(1.13683e-14 7.92138e-14 0)
(1.90305e-13 1.3103e-13 0)
(1.81297e-13 2.83211e-14 0)
(1.61816e-13 -4.28201e-14 0)
(1.75792e-13 -2.02059e-14 0)
(1.0059e-13 -7.2419e-14 0)
(5.00665e-14 -1.30202e-13 0)
(-4.36963e-14 -9.15071e-14 0)
(6.48443e-14 -7.51784e-14 0)
(1.92204e-13 -1.66907e-13 0)
(6.82656e-14 -1.15289e-13 0)
(-1.09335e-15 -1.46842e-13 0)
(-9.57956e-14 -1.30138e-13 0)
(-1.23498e-13 -9.87997e-14 0)
(-7.49078e-14 -9.03998e-14 0)
(-5.33302e-14 -4.84626e-14 0)
(-3.73721e-14 -7.5624e-14 0)
(8.27538e-14 -7.03958e-14 0)
(1.24385e-13 -1.64576e-14 0)
(-8.31039e-14 -3.65048e-15 0)
(-1.55607e-13 -4.79396e-15 0)
(-2.17188e-13 -1.58804e-14 0)
(-1.45437e-13 9.80717e-15 0)
(-6.87192e-15 2.20492e-14 0)
(6.64601e-14 -1.06627e-13 0)
(9.62906e-14 -1.271e-13 0)
(3.50949e-14 -1.26334e-13 0)
(9.28652e-14 -6.37956e-14 0)
(2.45132e-13 -9.12157e-14 0)
(1.81146e-13 -1.52214e-13 0)
(5.30644e-14 -1.76607e-13 0)
(-4.00826e-14 -8.95022e-14 0)
(-1.47828e-13 -8.09235e-14 0)
(-1.77533e-13 -1.08668e-13 0)
(-7.09382e-14 -7.93127e-14 0)
(-6.42899e-14 -1.09559e-13 0)
(-9.40194e-14 -1.57566e-13 0)
(-1.37232e-13 -1.65897e-13 0)
(-1.60161e-13 -1.41484e-13 0)
(-3.69796e-14 9.08381e-15 0)
(7.12705e-14 1.47867e-13 0)
(1.54544e-13 1.27815e-13 0)
(2.06326e-13 4.67228e-14 0)
(4.33778e-14 -6.1109e-15 0)
(-1.25574e-13 2.51046e-15 0)
(-7.21792e-14 3.10904e-14 0)
(-3.39688e-14 5.1871e-14 0)
(-8.42095e-14 7.40057e-14 0)
(-6.98214e-14 1.20443e-13 0)
(3.60049e-14 6.74886e-14 0)
(2.11016e-15 3.70573e-14 0)
(-1.07062e-14 4.83563e-14 0)
(8.37935e-15 1.02574e-14 0)
(-3.93455e-14 -3.46544e-15 0)
(-1.9372e-14 -1.29602e-14 0)
(-5.00491e-14 1.27459e-15 0)
(-2.96109e-14 6.51998e-14 0)
(-6.07264e-14 5.57062e-14 0)
(-4.98821e-14 9.01457e-14 0)
(6.53636e-14 1.97183e-14 0)
(7.09677e-14 -4.55319e-14 0)
(5.38793e-14 -7.16161e-14 0)
(6.52153e-14 1.40397e-14 0)
(2.42392e-14 -9.25244e-15 0)
(-3.69271e-14 -5.9072e-15 0)
(1.01499e-13 -4.25435e-14 0)
(7.94055e-14 -2.23952e-14 0)
(1.23438e-13 1.85944e-14 0)
(5.70436e-14 -2.88199e-14 0)
(-5.82707e-15 2.96128e-14 0)
(1.65153e-14 1.74692e-14 0)
(-1.4802e-13 2.74547e-14 0)
(-1.53789e-13 5.1089e-14 0)
(1.25918e-14 8.87515e-14 0)
(-1.10619e-14 3.18924e-14 0)
(2.32928e-14 1.14302e-14 0)
(-6.74167e-14 -3.23058e-14 0)
(-1.56288e-13 3.39791e-14 0)
(-6.34446e-14 5.30011e-14 0)
(-1.62389e-14 1.77971e-14 0)
(-5.63596e-14 3.17778e-14 0)
(-5.64565e-15 4.45609e-15 0)
(5.90077e-14 -5.09544e-15 0)
(9.831e-14 5.7459e-14 0)
(2.06031e-13 4.7213e-14 0)
(1.51889e-13 5.69225e-14 0)
(1.40725e-13 1.56423e-14 0)
(7.43211e-14 -2.73223e-14 0)
(5.27049e-14 -1.72808e-13 0)
(-2.45682e-14 -2.56402e-13 0)
(5.47331e-15 -1.59494e-13 0)
(-6.52267e-14 -1.10291e-13 0)
(-6.71057e-14 -1.06585e-13 0)
(-3.27657e-14 -5.74864e-14 0)
(-2.26005e-14 -6.36451e-14 0)
(-7.7624e-14 -1.13332e-13 0)
(-1.5096e-13 -1.10499e-13 0)
(-1.17252e-13 1.66458e-14 0)
(7.45539e-14 8.49141e-14 0)
(1.34821e-13 2.45747e-14 0)
(9.02242e-14 8.21455e-15 0)
(1.25532e-13 -8.76581e-14 0)
(-2.78129e-14 -1.09658e-13 0)
(-7.20404e-14 -1.81148e-13 0)
(-2.24662e-14 -1.48684e-13 0)
(4.53456e-14 -1.59356e-13 0)
(2.31457e-14 -1.34466e-13 0)
(1.02924e-14 -1.43037e-13 0)
(-3.57122e-14 -1.30078e-13 0)
(-3.77751e-14 -1.03577e-13 0)
(-2.51557e-14 -1.02805e-13 0)
(-1.19426e-13 -9.9867e-14 0)
(-9.97044e-14 -1.84456e-14 0)
(-1.47192e-13 -1.60586e-14 0)
(-1.78392e-13 -2.07605e-14 0)
(-2.46687e-14 6.93407e-14 0)
(2.98427e-14 3.09186e-14 0)
(3.42195e-15 -5.34683e-14 0)
(6.7112e-14 -1.22161e-13 0)
(1.61447e-13 -1.53893e-13 0)
(7.7664e-14 -1.50354e-13 0)
(3.29594e-15 -1.88e-13 0)
(3.87572e-14 -1.72325e-13 0)
(-1.77269e-14 -1.43707e-13 0)
(-7.98132e-14 -1.14637e-13 0)
(2.00887e-14 -5.39544e-14 0)
(-1.01782e-13 -5.73463e-14 0)
(-1.95251e-13 3.93435e-14 0)
(-9.01538e-14 5.12442e-14 0)
(6.58701e-14 6.25324e-14 0)
(2.24267e-13 1.06952e-13 0)
(3.59918e-13 4.49643e-14 0)
(3.26039e-13 4.13418e-14 0)
(1.45826e-13 -6.53812e-14 0)
(7.52529e-14 -5.35237e-14 0)
(-2.96178e-14 -4.61535e-14 0)
(-1.12558e-13 3.81424e-14 0)
(-1.02988e-13 5.65753e-14 0)
(-2.08309e-13 -4.46065e-14 0)
(-1.35056e-13 -4.36733e-15 0)
(1.02506e-13 7.34304e-14 0)
(3.40394e-13 5.29868e-14 0)
(6.4348e-13 -6.07244e-15 0)
(8.41662e-13 -5.71449e-14 0)
(9.29584e-13 3.26715e-14 0)
(1.07609e-12 5.75021e-15 0)
(1.19157e-12 -1.16959e-13 0)
(1.08508e-12 -7.12461e-14 0)
(1.01629e-12 -1.42368e-13 0)
(1.23468e-12 -8.0012e-14 0)
(1.25126e-12 -1.89067e-13 0)
(1.34964e-12 -8.74597e-14 0)
(1.04016e-13 -8.26183e-14 0)
(1.39715e-14 -7.32169e-14 0)
(2.67302e-14 7.07648e-15 0)
(-4.48084e-14 -2.77568e-14 0)
(-5.95689e-14 6.7616e-14 0)
(3.78075e-14 -5.48955e-14 0)
(1.48219e-14 -1.87001e-13 0)
(-4.17162e-14 -1.70564e-13 0)
(1.03069e-14 -1.72622e-13 0)
(9.50789e-14 -7.20776e-14 0)
(7.47023e-14 -1.17442e-13 0)
(2.77424e-14 -1.27581e-13 0)
(8.09646e-14 -5.19591e-14 0)
(-1.30624e-14 -9.47161e-14 0)
(-7.01391e-14 -1.8536e-14 0)
(6.19009e-14 9.80038e-14 0)
(1.10436e-13 5.11606e-14 0)
(7.63438e-14 -7.71811e-14 0)
(1.51986e-13 -8.51331e-14 0)
(1.69806e-13 -9.93176e-14 0)
(1.10525e-13 -7.61397e-14 0)
(1.12168e-13 -9.38404e-14 0)
(6.403e-15 -1.45443e-13 0)
(5.55978e-15 -1.28929e-13 0)
(9.97916e-14 -2.57883e-13 0)
(4.6602e-14 -2.53617e-13 0)
(-1.19734e-14 -2.5651e-13 0)
(-1.89586e-14 -2.21347e-13 0)
(-4.12944e-14 -2.04326e-13 0)
(-2.16908e-14 -9.75477e-14 0)
(-1.10698e-13 -1.21341e-13 0)
(-5.81758e-14 -1.70865e-13 0)
(1.10525e-13 -1.32904e-13 0)
(1.40094e-13 -1.70841e-13 0)
(-1.11092e-13 -1.29887e-13 0)
(-2.04972e-13 -1.33981e-13 0)
(-1.53997e-13 -9.77777e-14 0)
(-1.196e-13 5.74263e-14 0)
(-6.6678e-14 -8.20351e-14 0)
(-2.23377e-14 -1.67234e-13 0)
(6.83174e-14 -2.06435e-13 0)
(1.01317e-13 -2.68112e-13 0)
(1.67656e-13 -1.93141e-13 0)
(2.19863e-13 -1.42741e-13 0)
(1.4133e-13 -2.04779e-13 0)
(3.21994e-14 -1.87448e-13 0)
(-1.55865e-14 -2.09457e-13 0)
(-1.48095e-13 -2.1397e-13 0)
(-1.88181e-13 -1.72479e-13 0)
(-1.16779e-13 -2.44161e-13 0)
(-9.72819e-14 -2.1366e-13 0)
(-1.07699e-13 -2.304e-13 0)
(-1.49033e-13 -2.26576e-13 0)
(-5.25033e-14 -1.81309e-13 0)
(6.89321e-14 -1.26677e-14 0)
(7.35632e-14 3.01482e-14 0)
(1.10171e-13 -8.3212e-15 0)
(1.2028e-13 -6.73676e-14 0)
(2.63147e-14 -6.3168e-14 0)
(-7.9102e-14 -7.9243e-14 0)
(-3.03836e-14 -1.09318e-13 0)
(-3.0987e-14 -9.95493e-14 0)
(-7.24763e-14 -2.26158e-14 0)
(-4.37266e-14 -4.21617e-14 0)
(4.68805e-15 -5.76445e-14 0)
(-6.19796e-16 -9.20605e-14 0)
(-1.73442e-14 -7.76528e-14 0)
(-1.71049e-14 -1.29761e-13 0)
(-2.99748e-14 -5.44009e-14 0)
(-4.05167e-14 -8.24648e-14 0)
(1.14291e-14 -1.62389e-14 0)
(6.07507e-15 1.15318e-13 0)
(-5.53771e-14 3.05422e-14 0)
(-5.17064e-14 2.54302e-14 0)
(-5.36912e-15 -7.66387e-14 0)
(4.2576e-14 -4.3829e-14 0)
(1.05181e-13 -9.23258e-14 0)
(1.42392e-13 -3.49445e-14 0)
(3.45105e-14 -5.47719e-14 0)
(-3.72597e-14 7.02268e-15 0)
(5.75533e-14 -7.87833e-14 0)
(1.42904e-13 -9.93092e-14 0)
(9.14315e-14 -4.08467e-14 0)
(4.67672e-14 -9.47419e-14 0)
(3.39475e-14 -1.01665e-14 0)
(2.26056e-14 -4.84127e-14 0)
(-1.27854e-13 -4.97851e-14 0)
(-1.19599e-13 5.19273e-14 0)
(-4.52953e-14 -7.44332e-15 0)
(-5.66173e-14 -7.25581e-14 0)
(-3.71515e-14 -4.1671e-14 0)
(-6.38768e-14 -6.58095e-14 0)
(-1.0147e-13 -2.22569e-14 0)
(-4.0369e-14 4.20435e-14 0)
(2.6641e-14 6.14033e-14 0)
(-1.56427e-14 6.23596e-14 0)
(-4.76882e-14 1.36794e-13 0)
(-3.66732e-15 -2.95574e-15 0)
(7.41669e-14 5.15752e-14 0)
(1.74186e-13 -8.49584e-14 0)
(1.43632e-13 -1.17485e-13 0)
(1.57279e-13 -1.21573e-13 0)
(8.10893e-14 -1.4024e-13 0)
(-2.78351e-14 -2.97713e-13 0)
(9.83278e-15 -2.8698e-13 0)
(3.89422e-14 -2.99877e-13 0)
(-2.88834e-14 -2.95963e-13 0)
(-4.43251e-14 -2.40801e-13 0)
(-3.52998e-14 -2.3384e-13 0)
(-5.68489e-14 -2.5484e-13 0)
(-7.87177e-14 -2.84623e-13 0)
(-5.95569e-14 -2.19825e-13 0)
(-2.3531e-14 -6.65921e-14 0)
(3.1106e-14 -8.68023e-14 0)
(6.27043e-14 -1.21851e-13 0)
(4.99203e-14 -1.28817e-13 0)
(3.67302e-14 -2.19473e-13 0)
(-3.22254e-14 -2.74661e-13 0)
(-6.02716e-14 -2.20924e-13 0)
(1.29025e-14 -2.17017e-13 0)
(1.23487e-13 -1.97057e-13 0)
(4.04647e-14 -2.34238e-13 0)
(-5.58518e-14 -2.88729e-13 0)
(-3.33634e-14 -3.34875e-13 0)
(1.9943e-14 -2.70434e-13 0)
(2.93601e-15 -2.37839e-13 0)
(-8.46263e-14 -1.43995e-13 0)
(-9.34574e-14 -4.48076e-14 0)
(-2.06602e-13 -1.04354e-13 0)
(-1.5435e-13 -8.66951e-15 0)
(-9.6585e-15 -6.06254e-14 0)
(-2.82825e-14 -1.04586e-13 0)
(-3.71629e-14 -1.31727e-13 0)
(2.86588e-14 -1.28573e-13 0)
(1.1391e-13 -1.76632e-13 0)
(5.25991e-14 -2.53847e-13 0)
(2.93556e-14 -2.43254e-13 0)
(8.42683e-14 -1.21704e-13 0)
(-1.34056e-14 -1.85201e-13 0)
(-5.42643e-14 -9.40455e-14 0)
(-6.68657e-15 -6.72617e-14 0)
(-7.74762e-14 -3.87797e-14 0)
(-1.51179e-13 3.57382e-14 0)
(-6.22971e-14 2.98272e-14 0)
(1.08459e-13 2.03141e-14 0)
(1.85217e-13 1.07744e-13 0)
(3.20622e-13 -2.30647e-14 0)
(2.94698e-13 -8.37868e-14 0)
(1.40929e-13 -1.43107e-13 0)
(1.08124e-13 -2.12347e-13 0)
(6.39208e-14 -1.72327e-13 0)
(-5.33209e-14 -9.51202e-14 0)
(-1.80717e-13 -3.81631e-14 0)
(-2.57729e-13 -1.21758e-13 0)
(-7.22584e-14 7.27128e-14 0)
(1.13963e-13 3.34885e-17 0)
(3.40694e-13 2.49767e-14 0)
(6.75285e-13 8.98741e-14 0)
(9.30616e-13 3.60153e-14 0)
(9.34616e-13 -1.71356e-17 0)
(1.0129e-12 -3.79602e-14 0)
(1.16585e-12 -1.46387e-13 0)
(1.10595e-12 -2.09422e-13 0)
(1.10972e-12 -2.29037e-13 0)
(1.27892e-12 -1.8295e-13 0)
(1.36737e-12 -2.08446e-13 0)
(1.52061e-12 -8.00071e-14 0)
(1.48993e-13 -1.34072e-15 0)
(2.92641e-14 -5.22246e-14 0)
(-1.62913e-14 -6.09652e-14 0)
(-4.80011e-14 -9.05053e-14 0)
(-8.19102e-14 -1.12235e-14 0)
(-5.38866e-14 4.02623e-14 0)
(4.70198e-16 4.6576e-15 0)
(5.0228e-14 5.00877e-14 0)
(7.95051e-14 1.07768e-13 0)
(9.3148e-14 1.03069e-13 0)
(5.18662e-14 5.1468e-14 0)
(4.22779e-14 -1.70071e-14 0)
(-3.46117e-15 -7.22452e-14 0)
(-1.51122e-14 -4.07382e-14 0)
(6.92398e-14 9.04959e-14 0)
(5.52927e-14 1.59616e-13 0)
(9.62684e-15 1.19563e-13 0)
(7.63184e-14 1.15705e-13 0)
(1.69244e-13 9.50903e-14 0)
(1.80321e-13 4.3399e-14 0)
(1.02565e-13 -9.25181e-15 0)
(3.92695e-14 -1.33121e-13 0)
(-1.71505e-14 -1.82831e-13 0)
(-7.99133e-14 -1.87278e-13 0)
(6.02674e-14 -1.82579e-13 0)
(5.79027e-14 -1.95957e-13 0)
(4.82174e-15 -1.88896e-13 0)
(-3.97221e-14 -1.97208e-13 0)
(-3.94102e-14 -2.41478e-13 0)
(1.87158e-14 -2.53002e-13 0)
(-4.59557e-14 -1.24922e-13 0)
(-1.11628e-14 -4.83621e-14 0)
(4.73724e-14 -5.20818e-14 0)
(7.98831e-14 -1.57017e-13 0)
(1.35688e-14 -1.84519e-13 0)
(-1.47351e-13 -7.04235e-14 0)
(-9.62252e-14 -6.14126e-14 0)
(-1.3441e-13 -3.34816e-14 0)
(-1.47465e-13 -6.69606e-14 0)
(-1.77923e-14 1.83227e-14 0)
(3.65905e-14 -2.80186e-14 0)
(7.14637e-14 -6.7752e-14 0)
(1.9093e-13 -1.13763e-13 0)
(2.25284e-13 -1.83866e-13 0)
(1.19698e-13 -2.01548e-13 0)
(-1.00753e-14 -2.30742e-13 0)
(-9.07593e-14 -3.114e-13 0)
(-1.30593e-13 -3.27531e-13 0)
(-1.62451e-13 -1.83535e-13 0)
(-7.27635e-14 -1.60575e-13 0)
(-6.57302e-14 -1.38055e-13 0)
(-1.06506e-13 -1.1802e-13 0)
(-1.19802e-13 -5.14313e-14 0)
(-2.35235e-14 -5.98209e-14 0)
(6.05583e-14 -6.22954e-14 0)
(5.65074e-14 -7.29988e-14 0)
(1.19799e-13 -7.35128e-14 0)
(1.57307e-13 -1.87671e-14 0)
(4.40826e-14 -2.80073e-14 0)
(-1.43843e-13 -4.97369e-14 0)
(-6.20521e-14 -8.51944e-14 0)
(3.70098e-14 -8.13511e-14 0)
(-9.31556e-14 -1.2279e-13 0)
(-4.44596e-14 -1.39017e-13 0)
(4.32715e-15 -6.57252e-14 0)
(-1.70603e-14 -6.38182e-14 0)
(-3.43659e-14 -1.59554e-14 0)
(4.93719e-14 -1.79927e-14 0)
(2.31199e-14 2.915e-14 0)
(-2.71298e-14 8.16212e-14 0)
(3.13635e-14 5.24264e-14 0)
(-1.19028e-15 -2.81594e-14 0)
(-9.99376e-14 3.8156e-14 0)
(-1.1881e-13 2.80659e-14 0)
(2.76142e-14 -4.23643e-15 0)
(7.61306e-14 1.60172e-14 0)
(9.07829e-14 7.68341e-15 0)
(1.48296e-13 1.18819e-14 0)
(5.10426e-14 -4.13637e-14 0)
(-3.22083e-14 6.20243e-15 0)
(1.34498e-15 7.00042e-14 0)
(1.11964e-13 -2.79408e-14 0)
(1.68653e-13 -1.83867e-14 0)
(1.03149e-13 1.52992e-14 0)
(-2.41581e-14 -9.17827e-15 0)
(-7.45866e-14 -6.44653e-14 0)
(-5.6561e-14 -1.21644e-13 0)
(-1.46489e-13 -1.23163e-13 0)
(-1.1077e-13 -1.11625e-13 0)
(2.00522e-15 -4.40774e-14 0)
(-2.49417e-15 2.5536e-14 0)
(-4.05593e-14 2.13758e-14 0)
(-5.32281e-14 5.6505e-14 0)
(1.14879e-14 8.8261e-14 0)
(-8.06397e-15 5.30371e-14 0)
(5.03907e-15 -3.12939e-15 0)
(-2.65596e-14 1.20574e-13 0)
(-5.1739e-14 7.77867e-14 0)
(-1.07214e-14 9.99726e-14 0)
(5.68854e-14 1.92336e-14 0)
(1.35662e-13 -4.65667e-14 0)
(8.24282e-14 -1.02542e-13 0)
(-4.46537e-14 -1.81149e-13 0)
(-6.94303e-14 -2.39909e-13 0)
(-6.64931e-15 -2.18602e-13 0)
(2.72893e-14 -2.23305e-13 0)
(-1.43705e-15 -1.55276e-13 0)
(-6.48695e-14 -9.92369e-14 0)
(-2.30656e-14 -1.29133e-13 0)
(-5.59007e-14 -1.92045e-13 0)
(-3.19845e-14 -2.65426e-13 0)
(2.12245e-14 -2.26535e-13 0)
(-3.33669e-15 -2.05134e-13 0)
(4.71431e-14 -1.97851e-13 0)
(1.01099e-13 -1.09511e-13 0)
(4.15009e-14 -9.12958e-14 0)
(-1.83534e-14 -4.14757e-14 0)
(5.19646e-15 -7.44103e-14 0)
(2.42659e-15 -1.0448e-13 0)
(3.32055e-14 -1.15653e-13 0)
(5.27475e-14 -9.01934e-14 0)
(-4.15582e-14 -1.36679e-13 0)
(-7.55904e-14 -2.15641e-13 0)
(-4.83781e-15 -2.12091e-13 0)
(1.1332e-13 -1.72383e-13 0)
(6.05124e-14 -1.75616e-13 0)
(-2.5677e-14 -1.3473e-13 0)
(-8.65707e-14 -1.18421e-13 0)
(-1.7073e-13 -1.36622e-13 0)
(-1.8452e-13 -7.56402e-14 0)
(-8.63866e-14 -9.16485e-14 0)
(-6.75648e-14 -2.02729e-14 0)
(8.80727e-15 -3.3126e-14 0)
(7.85568e-14 -1.76921e-14 0)
(4.8915e-14 -9.96489e-14 0)
(3.56296e-14 -9.99701e-14 0)
(7.4179e-14 -5.87894e-14 0)
(5.40328e-14 -8.56227e-14 0)
(-8.17475e-15 -5.02131e-14 0)
(4.10835e-14 4.73963e-14 0)
(3.94389e-14 9.73332e-14 0)
(-5.96138e-14 1.27203e-13 0)
(-1.32057e-13 1.57708e-13 0)
(-9.21721e-14 1.65028e-13 0)
(6.90522e-14 1.09958e-13 0)
(1.39748e-13 6.35391e-14 0)
(2.18456e-13 4.74597e-16 0)
(2.61061e-13 -7.24254e-14 0)
(1.18331e-13 -3.83761e-14 0)
(7.48588e-14 -1.39439e-13 0)
(1.08062e-13 -1.82294e-13 0)
(-1.47977e-14 -1.53379e-13 0)
(-1.55354e-13 -1.62532e-13 0)
(-1.25018e-13 -1.06093e-13 0)
(1.08858e-14 -2.522e-15 0)
(9.89674e-14 -8.08333e-14 0)
(3.96436e-13 9.49371e-15 0)
(6.76691e-13 2.57607e-14 0)
(8.41624e-13 6.14604e-14 0)
(8.7271e-13 -2.85688e-14 0)
(9.60085e-13 -4.15124e-14 0)
(1.09559e-12 -9.6721e-14 0)
(1.11059e-12 -2.17218e-13 0)
(1.07025e-12 -1.25937e-13 0)
(1.2441e-12 -1.82694e-13 0)
(1.35194e-12 -1.30989e-13 0)
(1.36809e-12 -2.29911e-13 0)
(4.51157e-14 -1.19148e-13 0)
(-6.7536e-15 -1.54137e-13 0)
(2.30128e-14 -1.85743e-13 0)
(-3.23196e-14 -1.31542e-13 0)
(1.43427e-14 -3.78194e-15 0)
(3.62515e-14 1.33894e-13 0)
(4.22287e-14 1.58478e-13 0)
(8.23193e-14 1.41539e-13 0)
(6.65087e-14 1.00781e-13 0)
(5.67965e-14 -4.93667e-15 0)
(-9.05861e-16 -4.96365e-14 0)
(-4.98197e-14 -8.14614e-14 0)
(-2.29343e-15 -5.25809e-14 0)
(6.56784e-14 -8.3171e-14 0)
(1.04325e-13 -4.8017e-14 0)
(6.88271e-14 -4.99638e-14 0)
(3.97654e-14 -3.48858e-16 0)
(8.29741e-14 1.08151e-14 0)
(1.10138e-13 -7.77146e-15 0)
(1.11538e-13 -8.77782e-14 0)
(9.68775e-15 -1.3903e-13 0)
(-3.2972e-16 -1.4018e-13 0)
(-3.48835e-14 -1.86669e-13 0)
(-4.62448e-14 -1.58899e-13 0)
(3.63463e-14 -1.97088e-13 0)
(2.88937e-14 -3.04918e-13 0)
(-1.63615e-14 -3.00198e-13 0)
(-5.71053e-14 -3.44531e-13 0)
(-7.0072e-14 -2.9754e-13 0)
(8.43746e-14 -2.18682e-13 0)
(1.09122e-13 -2.05529e-13 0)
(3.65248e-14 -1.61171e-13 0)
(2.56115e-14 -1.29252e-13 0)
(1.23286e-14 -1.91203e-13 0)
(-3.64117e-14 -2.59521e-13 0)
(-1.05184e-13 -2.00634e-13 0)
(-9.33676e-14 -1.42366e-13 0)
(-5.55561e-14 -9.58986e-14 0)
(-7.33591e-14 -2.41136e-14 0)
(-3.959e-14 -7.97838e-14 0)
(9.68144e-15 -1.19141e-13 0)
(5.53631e-14 -5.81878e-14 0)
(6.78332e-14 -1.22172e-13 0)
(1.48125e-13 -2.2885e-13 0)
(8.33024e-14 -3.01582e-13 0)
(-7.08133e-14 -2.70657e-13 0)
(-9.00002e-14 -2.49018e-13 0)
(-4.93649e-14 -2.59255e-13 0)
(-7.1076e-14 -1.88487e-13 0)
(-1.08111e-13 -1.24382e-13 0)
(-7.40996e-14 -1.50164e-13 0)
(-2.48328e-14 -1.03335e-13 0)
(-7.37783e-14 -7.84934e-14 0)
(-3.23499e-14 -1.89107e-15 0)
(6.6337e-14 6.3992e-14 0)
(7.31248e-14 8.4457e-14 0)
(1.28859e-13 -1.20043e-14 0)
(1.48374e-13 -4.09604e-14 0)
(2.89789e-14 -1.22128e-13 0)
(-1.10424e-13 -1.55606e-13 0)
(-5.79676e-14 -1.15474e-13 0)
(-6.25164e-14 -1.42024e-13 0)
(-1.06914e-13 -1.14167e-13 0)
(2.2754e-14 -7.32374e-14 0)
(5.88431e-14 -4.51959e-14 0)
(2.19851e-14 -1.76871e-14 0)
(1.42896e-14 3.43343e-14 0)
(6.51334e-15 9.47501e-15 0)
(3.17406e-14 -2.2549e-14 0)
(-1.10427e-14 3.2102e-15 0)
(-7.08368e-14 -1.60602e-14 0)
(-1.84828e-14 -2.75388e-14 0)
(-2.85799e-14 -1.4158e-14 0)
(-9.13995e-14 -6.35502e-15 0)
(-5.98099e-15 -7.69955e-14 0)
(5.19012e-14 -1.38456e-13 0)
(1.01774e-13 -1.33684e-13 0)
(1.36376e-13 -1.51821e-13 0)
(4.24418e-14 -1.32742e-13 0)
(2.91573e-14 -6.1246e-14 0)
(8.40136e-14 -1.61103e-14 0)
(8.41471e-14 -1.80041e-14 0)
(1.07443e-13 -1.28435e-13 0)
(4.91333e-14 -7.50925e-14 0)
(-6.58666e-14 -1.77848e-13 0)
(-1.11176e-13 -1.43974e-13 0)
(-1.13077e-13 -1.36835e-13 0)
(-1.23294e-13 -1.02114e-13 0)
(-1.00393e-14 -4.55457e-14 0)
(6.36054e-14 2.09521e-14 0)
(5.52919e-15 -2.76475e-14 0)
(-6.5433e-14 -1.08282e-14 0)
(-2.75356e-14 -6.00434e-14 0)
(-1.25863e-14 -8.01412e-14 0)
(-7.17299e-14 -9.84992e-14 0)
(3.7522e-14 -1.48695e-13 0)
(4.72312e-14 -8.15561e-14 0)
(-2.69129e-14 -5.42254e-14 0)
(5.81057e-15 -6.33844e-14 0)
(-2.5461e-14 -9.43146e-14 0)
(2.0874e-14 -1.6511e-13 0)
(1.73801e-14 -2.23182e-13 0)
(-3.84382e-14 -2.33274e-13 0)
(-7.9202e-14 -1.71707e-13 0)
(2.08345e-15 -9.8798e-14 0)
(6.16903e-14 -5.51133e-14 0)
(6.71561e-14 -7.21701e-14 0)
(-8.35043e-15 2.24967e-14 0)
(-9.02342e-14 1.45442e-14 0)
(-1.59112e-13 -8.55151e-14 0)
(-8.29182e-14 -9.94785e-14 0)
(2.86707e-14 -1.62686e-13 0)
(1.86581e-14 -1.32291e-13 0)
(1.26067e-13 -1.50704e-13 0)
(1.39309e-13 -1.0139e-13 0)
(6.52325e-14 -1.2355e-13 0)
(-2.88337e-15 -4.71078e-14 0)
(-7.49395e-14 -3.7293e-14 0)
(-4.88902e-14 -7.64933e-14 0)
(5.98541e-16 -5.15012e-14 0)
(6.17305e-14 -1.03296e-13 0)
(-5.27348e-14 -5.57838e-14 0)
(-1.27303e-13 -7.6089e-14 0)
(6.36526e-15 -8.47552e-14 0)
(3.45177e-14 -1.74547e-13 0)
(1.39964e-14 -2.25417e-13 0)
(-2.96119e-14 -2.56357e-13 0)
(-9.83391e-14 -2.62057e-13 0)
(-1.34474e-13 -1.99741e-13 0)
(-8.39378e-14 -3.21109e-14 0)
(-1.62126e-14 2.55183e-14 0)
(-1.82728e-14 2.01736e-14 0)
(-5.68597e-14 6.85037e-14 0)
(-1.54252e-14 -1.34103e-14 0)
(5.36586e-14 -1.31604e-13 0)
(8.14717e-14 -1.32616e-13 0)
(3.46881e-14 -1.10319e-13 0)
(8.89669e-14 -2.95804e-14 0)
(1.29162e-13 2.80813e-14 0)
(9.82062e-14 7.21301e-16 0)
(2.23655e-14 -3.31735e-14 0)
(-5.97073e-14 8.10958e-15 0)
(-1.1116e-13 9.51264e-15 0)
(-1.10111e-13 6.36038e-14 0)
(1.44068e-14 7.38674e-14 0)
(4.4771e-14 6.26038e-15 0)
(1.72773e-13 1.35188e-14 0)
(2.55869e-13 -9.53027e-14 0)
(1.20938e-13 -9.66639e-14 0)
(3.33463e-14 -6.4599e-14 0)
(5.95679e-14 -1.78958e-13 0)
(-3.78567e-14 -2.56146e-13 0)
(-1.73416e-13 -2.43306e-13 0)
(-8.87224e-14 -1.48071e-13 0)
(9.45321e-14 -1.31e-13 0)
(2.0687e-13 -6.06893e-14 0)
(4.38103e-13 -2.37993e-14 0)
(6.65137e-13 -7.28378e-14 0)
(7.59724e-13 -7.05735e-14 0)
(8.22574e-13 -7.27554e-14 0)
(9.4292e-13 -1.21635e-14 0)
(1.03052e-12 -6.42286e-14 0)
(1.10946e-12 -2.09594e-13 0)
(1.15923e-12 -1.62072e-13 0)
(1.18193e-12 -1.84897e-13 0)
(1.18912e-12 -1.58717e-13 0)
(1.10614e-12 -2.19126e-13 0)
(-6.54494e-15 -8.18458e-14 0)
(-3.43902e-14 -7.91737e-14 0)
(3.17644e-14 -1.17638e-13 0)
(9.13466e-14 -1.39122e-13 0)
(1.21724e-13 -7.90376e-14 0)
(4.23651e-14 -5.08401e-14 0)
(4.10606e-14 5.40197e-14 0)
(6.1043e-14 8.11985e-14 0)
(-4.17358e-14 3.96732e-14 0)
(-6.4244e-14 -2.59941e-14 0)
(6.33524e-15 -3.82164e-14 0)
(4.7511e-14 -5.08462e-14 0)
(2.17054e-16 -9.7531e-14 0)
(5.87122e-15 -1.37037e-13 0)
(6.52651e-14 -1.23487e-13 0)
(1.02777e-13 -1.94365e-13 0)
(3.22242e-14 -1.96335e-13 0)
(8.84661e-14 -6.67396e-14 0)
(8.60356e-14 7.03711e-15 0)
(7.5832e-14 -2.04766e-14 0)
(6.44739e-14 -8.17362e-14 0)
(4.29315e-15 -9.57396e-14 0)
(-2.61652e-14 -9.6308e-14 0)
(-8.78872e-14 -7.23094e-14 0)
(-9.5407e-14 -1.51955e-13 0)
(-6.51598e-14 -2.76329e-13 0)
(-5.91133e-14 -3.32625e-13 0)
(-4.21998e-14 -3.48535e-13 0)
(4.29435e-14 -2.85807e-13 0)
(1.22683e-13 -2.75907e-13 0)
(9.08371e-14 -3.10953e-13 0)
(9.29783e-14 -2.22508e-13 0)
(2.30096e-14 -1.37249e-13 0)
(-4.63709e-14 -1.43439e-13 0)
(-4.39385e-14 -1.96292e-13 0)
(-5.66279e-14 -1.69672e-13 0)
(-4.9589e-14 -1.49215e-13 0)
(9.05229e-15 -1.78661e-13 0)
(-9.72778e-14 -2.07068e-13 0)
(-7.64237e-14 -1.62966e-13 0)
(6.44345e-14 -1.44996e-13 0)
(9.4212e-14 -1.2478e-13 0)
(-1.70031e-14 -1.1235e-13 0)
(5.10252e-14 -1.41295e-13 0)
(8.99177e-14 -1.76856e-13 0)
(1.52864e-14 -1.85562e-13 0)
(-6.13317e-14 -1.72073e-13 0)
(-6.34306e-14 -1.77757e-13 0)
(-7.03697e-14 -1.62546e-13 0)
(-1.11829e-13 -1.07738e-13 0)
(-6.01893e-14 -5.29355e-14 0)
(-1.34125e-15 1.40812e-14 0)
(-2.43541e-14 1.16664e-14 0)
(7.5959e-14 4.16301e-14 0)
(1.25775e-13 1.9364e-15 0)
(3.30041e-15 4.44612e-14 0)
(6.01375e-14 1.68969e-14 0)
(8.7024e-14 -6.88824e-14 0)
(-5.85823e-14 -1.22458e-13 0)
(-1.06372e-13 -1.90084e-13 0)
(-5.75411e-14 -1.60132e-13 0)
(-6.54468e-15 -1.77172e-13 0)
(-2.86869e-14 -5.2555e-14 0)
(2.36484e-14 4.08562e-15 0)
(4.98527e-14 -2.22131e-14 0)
(1.00862e-14 -5.20235e-15 0)
(-8.5994e-15 -2.13972e-14 0)
(-2.60715e-14 -3.09702e-14 0)
(7.80828e-16 -1.01669e-15 0)
(-2.69596e-14 3.03791e-14 0)
(2.91448e-14 -7.03382e-15 0)
(3.56103e-14 1.23784e-14 0)
(-9.14894e-14 -4.71346e-14 0)
(-1.83078e-13 -4.47907e-14 0)
(-9.53529e-14 -1.29867e-13 0)
(2.98937e-14 -1.06197e-13 0)
(7.72667e-14 -6.67807e-14 0)
(1.21295e-13 -1.18156e-13 0)
(1.36052e-13 -1.62247e-13 0)
(8.89544e-14 -2.10876e-13 0)
(5.9389e-14 -2.89159e-13 0)
(1.31876e-14 -2.37404e-13 0)
(8.97066e-14 -2.35905e-13 0)
(5.02653e-14 -1.97162e-13 0)
(-7.65693e-14 -1.58814e-13 0)
(-5.80913e-14 -1.17383e-13 0)
(-4.71835e-14 -1.45298e-13 0)
(-6.11312e-14 -7.12888e-14 0)
(-8.952e-15 -6.69993e-14 0)
(4.17697e-14 -2.04915e-14 0)
(-2.32464e-14 -3.52418e-14 0)
(-1.13506e-13 -7.24244e-14 0)
(-8.3335e-14 -1.09264e-13 0)
(-1.82074e-14 -7.60524e-14 0)
(-7.6227e-14 -4.99636e-14 0)
(5.12766e-14 -8.72404e-14 0)
(1.07667e-13 -1.42309e-13 0)
(-1.86014e-15 -5.85144e-14 0)
(-8.32155e-14 -1.14765e-13 0)
(-1.02247e-13 -1.93731e-13 0)
(-4.49485e-14 -2.16126e-13 0)
(-1.74157e-15 -2.27214e-13 0)
(-5.81139e-15 -2.3663e-13 0)
(3.5538e-14 -2.17001e-13 0)
(1.00248e-13 -1.79397e-13 0)
(2.59887e-14 -1.87413e-13 0)
(9.30087e-14 -1.23507e-13 0)
(5.18477e-14 -7.80096e-14 0)
(-1.39804e-13 -4.12597e-14 0)
(-2.21752e-13 -2.56228e-14 0)
(-1.50593e-13 7.01195e-15 0)
(8.03687e-15 -9.06931e-14 0)
(6.44949e-14 -6.77216e-14 0)
(9.89261e-14 -3.76462e-14 0)
(1.32367e-13 -8.33423e-14 0)
(9.15225e-14 -7.65148e-14 0)
(2.63766e-14 -3.63511e-14 0)
(-7.09348e-14 1.10393e-14 0)
(-5.48695e-14 2.96544e-14 0)
(-5.87824e-14 -2.58449e-14 0)
(5.60797e-14 -1.29563e-13 0)
(1.41006e-14 -1.41544e-13 0)
(-1.07552e-13 -7.39346e-14 0)
(-7.70015e-14 -1.10616e-13 0)
(-6.58747e-14 -8.57337e-14 0)
(-1.97317e-14 -1.23805e-13 0)
(-5.58567e-14 -1.8897e-13 0)
(-4.7021e-14 -2.2815e-13 0)
(-2.86661e-14 -1.54231e-13 0)
(2.06864e-14 -1.14355e-13 0)
(-2.83953e-14 -7.04287e-14 0)
(-1.56226e-14 -5.78839e-14 0)
(-5.60448e-14 -4.72716e-14 0)
(-1.36096e-13 -9.05728e-14 0)
(-2.88072e-14 -9.42217e-14 0)
(5.43314e-14 -1.41513e-13 0)
(1.5797e-13 -1.35826e-13 0)
(1.71189e-13 -5.86708e-14 0)
(8.09535e-14 -7.52594e-14 0)
(3.57271e-14 -5.37751e-14 0)
(2.41001e-14 -7.42087e-14 0)
(-3.42343e-14 -4.29296e-14 0)
(-1.03452e-13 6.66775e-15 0)
(-5.99366e-14 7.6523e-14 0)
(2.91103e-14 7.88823e-14 0)
(9.59118e-14 1.15991e-14 0)
(6.99231e-14 -9.63405e-14 0)
(1.37122e-13 -1.20594e-13 0)
(1.2597e-13 -1.35274e-13 0)
(1.90252e-14 -1.31425e-13 0)
(-2.69594e-15 -1.30871e-13 0)
(-7.10933e-14 -1.93492e-13 0)
(-9.43353e-14 -1.91844e-13 0)
(-9.26524e-15 -1.92107e-13 0)
(1.546e-13 -2.20375e-13 0)
(2.08427e-13 -1.59174e-13 0)
(4.14157e-13 -9.27115e-14 0)
(6.3825e-13 -4.99283e-14 0)
(8.13263e-13 -1.25204e-13 0)
(8.38209e-13 -1.10892e-13 0)
(9.13334e-13 -1.13525e-13 0)
(9.4137e-13 -1.88468e-13 0)
(1.01041e-12 -1.88864e-13 0)
(1.07227e-12 -2.09054e-13 0)
(1.16741e-12 -2.29786e-13 0)
(1.23957e-12 -2.01564e-13 0)
(1.10839e-12 -2.51832e-13 0)
(-1.72777e-14 -1.4035e-13 0)
(-3.12049e-14 -1.31612e-13 0)
(1.64708e-14 -1.01433e-13 0)
(6.62416e-14 -9.21858e-14 0)
(1.21075e-13 -9.41048e-14 0)
(1.47001e-13 -1.42638e-13 0)
(1.60611e-13 -8.96163e-14 0)
(7.16248e-14 -8.58497e-14 0)
(-7.18989e-15 -1.19562e-13 0)
(-3.72344e-14 -1.11044e-13 0)
(-2.69576e-14 -1.29589e-13 0)
(-5.82962e-14 -1.18991e-13 0)
(-7.14488e-14 -1.43273e-13 0)
(3.59443e-14 -1.49701e-13 0)
(3.36214e-14 -1.77087e-13 0)
(2.22323e-14 -2.15034e-13 0)
(1.69667e-13 -1.81338e-13 0)
(2.63411e-13 -3.93308e-14 0)
(1.13474e-13 1.53768e-14 0)
(-3.37612e-15 -5.46311e-14 0)
(-6.3461e-14 -8.35994e-14 0)
(-5.73721e-14 -2.01415e-13 0)
(-1.94005e-14 -1.7914e-13 0)
(-8.07941e-14 -1.95189e-13 0)
(-1.37861e-13 -1.92066e-13 0)
(-1.65668e-13 -2.53915e-13 0)
(-1.32265e-13 -3.05512e-13 0)
(-7.24947e-14 -3.00126e-13 0)
(2.3622e-14 -2.91682e-13 0)
(1.10019e-13 -3.25622e-13 0)
(1.73489e-13 -2.70377e-13 0)
(2.12565e-13 -2.08508e-13 0)
(6.4258e-14 -1.9347e-13 0)
(-4.22092e-14 -2.256e-13 0)
(-5.062e-14 -1.97813e-13 0)
(-5.55766e-14 -2.01552e-13 0)
(-9.84667e-14 -1.55842e-13 0)
(-8.74412e-14 -1.50791e-13 0)
(-1.26769e-14 -1.95877e-13 0)
(4.51411e-14 -1.36947e-13 0)
(4.57771e-14 -1.03165e-13 0)
(6.94158e-14 -1.70395e-13 0)
(7.1721e-14 -1.73573e-13 0)
(9.81456e-14 -1.07909e-13 0)
(1.6312e-14 -1.51345e-13 0)
(-1.1084e-13 -2.27284e-13 0)
(-7.46893e-14 -2.52689e-13 0)
(-1.0578e-14 -2.18658e-13 0)
(-1.42168e-14 -2.37776e-13 0)
(-5.41124e-14 -1.86144e-13 0)
(1.63752e-14 -1.71455e-13 0)
(4.33318e-14 -9.84046e-14 0)
(-3.65108e-15 -1.05943e-13 0)
(-6.84113e-15 -5.31369e-14 0)
(8.51817e-14 -1.79261e-13 0)
(7.32352e-14 -1.53327e-13 0)
(2.52075e-14 -1.92287e-13 0)
(8.2036e-15 -2.28062e-13 0)
(-7.56488e-14 -2.65686e-13 0)
(-6.8738e-14 -2.32687e-13 0)
(-7.48819e-14 -2.06792e-13 0)
(2.21819e-14 -1.72313e-13 0)
(2.7496e-14 -1.25113e-13 0)
(8.20288e-15 -1.50734e-13 0)
(3.05684e-14 -1.76896e-13 0)
(4.77351e-14 -1.4865e-13 0)
(1.1693e-14 -1.90369e-13 0)
(6.1953e-14 -1.58502e-13 0)
(7.25422e-14 -7.15538e-14 0)
(-4.4739e-14 -4.66117e-14 0)
(-6.0203e-14 -7.79378e-14 0)
(-5.64267e-14 -1.45654e-13 0)
(-8.99037e-14 -1.96146e-13 0)
(-1.92443e-13 -1.8343e-13 0)
(-8.97018e-14 -8.90285e-14 0)
(8.6147e-14 -1.46223e-13 0)
(1.08965e-13 -1.28167e-13 0)
(6.0864e-14 -1.25349e-13 0)
(-1.88534e-14 -1.96867e-13 0)
(-5.15125e-14 -3.33864e-13 0)
(2.12825e-14 -3.76505e-13 0)
(1.07286e-13 -3.39591e-13 0)
(1.44148e-13 -2.51026e-13 0)
(1.37194e-13 -2.82655e-13 0)
(3.17835e-14 -1.9249e-13 0)
(-1.05582e-13 -1.31122e-13 0)
(-8.77749e-14 -1.2422e-13 0)
(-4.92225e-14 -1.32997e-13 0)
(3.87298e-14 -1.2454e-13 0)
(8.86518e-14 -1.68698e-13 0)
(-4.03687e-14 -9.92208e-14 0)
(-1.21237e-13 -1.38342e-13 0)
(-5.95595e-14 -6.79016e-14 0)
(4.81432e-14 -6.7875e-14 0)
(-6.0741e-14 2.26591e-15 0)
(-2.99249e-14 2.03684e-14 0)
(7.81971e-14 -6.81341e-14 0)
(-2.95817e-14 -1.01574e-13 0)
(-1.35464e-13 -1.55659e-13 0)
(-8.50425e-14 -1.90531e-13 0)
(-3.39815e-14 -1.95999e-13 0)
(1.01114e-14 -1.89458e-13 0)
(1.54968e-15 -2.11125e-13 0)
(-3.78148e-14 -1.70816e-13 0)
(2.84889e-14 -2.43664e-13 0)
(1.43497e-13 -2.66977e-13 0)
(1.76248e-13 -1.65717e-13 0)
(6.98675e-14 -1.98684e-13 0)
(-6.50218e-14 -2.20043e-13 0)
(-1.73884e-13 -1.67931e-13 0)
(-1.61044e-13 -1.31205e-13 0)
(2.64134e-15 -1.3343e-13 0)
(9.0079e-14 -1.43994e-13 0)
(9.53573e-14 -1.1317e-13 0)
(1.56235e-13 -1.45397e-13 0)
(1.45191e-13 -1.13334e-13 0)
(8.98214e-14 -7.70444e-14 0)
(1.87554e-14 -1.13763e-14 0)
(-7.88001e-14 6.01341e-14 0)
(-2.06893e-13 1.75813e-14 0)
(-4.32926e-14 -2.66008e-14 0)
(3.37369e-14 -1.18005e-13 0)
(-6.3638e-14 -9.26069e-14 0)
(-4.69705e-14 -9.1679e-14 0)
(8.99638e-15 -9.23866e-14 0)
(-1.18203e-13 -1.01204e-13 0)
(-1.03414e-13 -1.69145e-13 0)
(-4.93096e-14 -1.85554e-13 0)
(-6.52272e-14 -1.54211e-13 0)
(2.41284e-14 -1.50598e-13 0)
(7.99993e-14 -1.15377e-13 0)
(-1.83366e-14 -8.65553e-14 0)
(-1.3688e-13 -1.32343e-13 0)
(-7.12439e-14 -1.18828e-13 0)
(4.70942e-15 -1.48883e-13 0)
(4.08555e-14 -1.41492e-13 0)
(1.08077e-13 -9.22093e-14 0)
(1.48027e-13 -1.81537e-13 0)
(1.33328e-13 -2.23455e-13 0)
(1.23268e-13 -1.88524e-13 0)
(1.00694e-13 -1.22452e-13 0)
(3.55058e-14 -1.16426e-13 0)
(-1.91982e-14 -4.78971e-14 0)
(-5.54469e-14 -2.47651e-14 0)
(-1.33579e-14 -9.65468e-14 0)
(-4.83034e-14 -1.52073e-13 0)
(1.38269e-14 -2.57763e-13 0)
(1.4439e-13 -2.29071e-13 0)
(1.06814e-13 -2.76296e-13 0)
(9.74263e-14 -2.28066e-13 0)
(2.1672e-14 -1.81255e-13 0)
(-1.15839e-13 -1.23211e-13 0)
(-1.59235e-13 -1.38725e-13 0)
(-7.63611e-14 -1.4488e-13 0)
(9.75541e-14 -1.79469e-13 0)
(3.18076e-13 -1.94307e-13 0)
(5.48039e-13 -8.9105e-14 0)
(6.24817e-13 -1.11563e-13 0)
(7.22067e-13 -1.46444e-13 0)
(7.78943e-13 -1.57676e-13 0)
(8.16407e-13 -2.11333e-13 0)
(9.44098e-13 -2.91158e-13 0)
(1.06682e-12 -2.29699e-13 0)
(1.06906e-12 -2.64242e-13 0)
(1.18686e-12 -2.27238e-13 0)
(1.15686e-12 -1.91767e-13 0)
(1.05838e-12 -2.41889e-13 0)
(1.09462e-14 -1.92215e-13 0)
(1.44735e-14 -2.51748e-13 0)
(6.80201e-14 -2.14886e-13 0)
(1.27983e-13 -1.65812e-13 0)
(7.12646e-14 -1.5594e-13 0)
(7.92921e-14 -2.76079e-13 0)
(1.21547e-13 -3.01679e-13 0)