/*--------------------------------*- C++ -*----------------------------------*\
  =========                 |
  \\      /  F ield         | OpenFOAM: The Open Source CFD Toolbox
   \\    /   O peration     | Website:  https://openfoam.org
    \\  /    A nd           | Version:  13
     \\/     M anipulation  |
\*---------------------------------------------------------------------------*/
FoamFile
{
    format      ascii;
    class       volVectorField;
    location    "0.001";
    object      U;
}
// * * * * * * * * * * * * * * * * * * * * * * * * * * * * * * * * * * * * * //

dimensions      [0 1 -1 0 0 0 0];

internalField   nonuniform List<vector> 
33333
(
(-7.03524e-15 -2.71323e-13 0)
(-7.30653e-14 -2.25484e-13 0)
(8.38125e-15 -1.56673e-13 0)
(7.89062e-14 -1.70008e-13 0)
(5.28696e-14 -1.53103e-13 0)
(3.68827e-16 -9.72882e-14 0)
(5.55143e-14 -3.77857e-14 0)
(1.50015e-13 -9.10976e-14 0)
(8.16964e-14 -9.82053e-14 0)
(-8.92509e-14 -1.03892e-13 0)
(-6.8126e-14 -8.50051e-14 0)
(-4.12407e-14 -1.53686e-13 0)
(-1.34037e-13 -2.13408e-13 0)
(-1.26403e-13 -2.56033e-13 0)
(-2.69162e-14 -2.73875e-13 0)
(-6.98482e-14 -1.9234e-13 0)
(-7.40429e-14 -1.7233e-13 0)
(-5.35848e-14 -2.16792e-13 0)
(-3.34424e-14 -2.27466e-13 0)
(6.72628e-14 -2.41566e-13 0)
(1.31939e-13 -2.15786e-13 0)
(1.24248e-13 -2.25429e-13 0)
(8.71866e-14 -1.80588e-13 0)
(4.33482e-14 -3.60456e-14 0)
(1.26e-13 -5.6099e-14 0)
(2.05582e-13 -1.69381e-13 0)
(1.11041e-13 -1.55984e-13 0)
(1.46577e-13 -8.22968e-14 0)
(8.6844e-14 -1.41586e-13 0)
(3.58827e-14 -1.42533e-13 0)
(1.84105e-14 -1.40588e-13 0)
(-6.99101e-14 -1.05936e-13 0)
(-7.43112e-14 -7.71111e-14 0)
(-8.14119e-14 -8.9521e-14 0)
(-5.71771e-14 -6.76284e-14 0)
(-1.14416e-13 -7.50542e-14 0)
(-1.48105e-13 -1.56878e-13 0)
(-3.69606e-14 -1.95922e-13 0)
(8.09722e-14 -1.90272e-13 0)
(6.09712e-14 -2.40569e-13 0)
(3.35084e-14 -1.45107e-13 0)
(-3.92044e-14 -1.04529e-13 0)
(-1.66755e-13 -1.74492e-13 0)
(-2.47556e-13 -1.76093e-13 0)
(-9.78745e-14 -1.597e-13 0)
(3.09536e-14 -1.17314e-13 0)
(1.95561e-13 -1.26161e-13 0)
(3.12994e-13 -2.00473e-13 0)
(1.79329e-13 -1.09779e-13 0)
(9.17996e-14 -2.24051e-13 0)
(-2.50001e-14 -2.62715e-13 0)
(-3.15745e-14 -2.01577e-13 0)
(-1.02116e-13 -1.71987e-13 0)
(-1.2479e-13 -1.93779e-13 0)
(-1.24158e-13 -2.20391e-13 0)
(-7.35878e-14 -1.48676e-13 0)
(-3.02679e-14 -2.60502e-14 0)
(1.98197e-14 -2.78414e-14 0)
(4.68379e-14 -8.36258e-14 0)
(-1.04415e-13 -1.6339e-13 0)
(-1.43528e-13 -2.25611e-13 0)
(-1.69056e-13 -1.91328e-13 0)
(-2.64057e-14 -1.6205e-13 0)
(6.63751e-14 -1.9341e-13 0)
(2.66088e-14 -1.12512e-13 0)
(2.4366e-14 -9.251e-14 0)
(-8.27793e-14 -1.33845e-13 0)
(-1.41355e-13 -9.334e-14 0)
(5.00715e-14 -7.6905e-14 0)
(2.03606e-13 -1.53857e-13 0)
(2.36984e-13 -1.27071e-13 0)
(1.95885e-13 -1.62292e-13 0)
(1.30314e-13 -1.38674e-13 0)
(1.38878e-13 -2.67141e-14 0)
(7.56234e-14 -1.68528e-13 0)
(1.25915e-15 -2.74596e-13 0)
(1.8954e-14 -1.98493e-13 0)
(3.91084e-14 -2.23346e-13 0)
(2.31803e-14 -1.85693e-13 0)
(-8.39628e-14 -1.64825e-13 0)
(-4.24826e-14 -1.69842e-13 0)
(-4.18295e-14 -1.31702e-13 0)
(1.68929e-14 -8.44237e-14 0)
(1.55488e-13 -6.90485e-14 0)
(3.73477e-14 -1.20581e-13 0)
(-6.49921e-14 -2.4644e-13 0)
(-1.14906e-13 -2.73309e-13 0)
(-8.83076e-14 -2.90836e-13 0)
(-4.31674e-14 -3.11865e-13 0)
(-2.07251e-14 -2.74105e-13 0)
(-4.27688e-14 -1.3839e-13 0)
(-9.28636e-14 -1.66547e-13 0)
(-2.01974e-13 -1.80358e-13 0)
(-5.1489e-14 -2.00476e-13 0)
(2.54131e-14 -3.04085e-13 0)
(-4.40768e-14 -2.66622e-13 0)
(-5.45527e-14 -2.24206e-13 0)
(6.19518e-15 -1.84646e-13 0)
(4.19756e-14 -8.69237e-14 0)
(3.64517e-14 -1.28803e-13 0)
(2.14443e-14 -1.97196e-13 0)
(-6.72463e-14 -2.54957e-13 0)
(-2.8139e-14 -2.57624e-13 0)
(1.92654e-14 -2.18177e-13 0)
(-5.24091e-14 -2.40003e-13 0)
(-2.4015e-14 -1.65015e-13 0)
(4.57792e-14 -2.56901e-14 0)
(1.1627e-14 -1.24509e-13 0)
(-1.89338e-15 -2.45033e-13 0)
(-6.00295e-14 -2.52838e-13 0)
(-1.79001e-14 -1.82818e-13 0)
(5.30841e-14 -1.51476e-13 0)
(4.82117e-14 -9.75097e-14 0)
(7.34094e-14 -1.43877e-13 0)
(4.08937e-14 -1.5588e-13 0)
(2.12703e-14 -1.55283e-13 0)
(7.10478e-14 -1.65223e-13 0)
(1.10931e-13 -6.68064e-14 0)
(5.20847e-14 -6.14524e-14 0)
(7.98602e-14 -5.72204e-14 0)
(1.15472e-13 -1.47367e-13 0)
(4.46709e-14 -1.1788e-13 0)
(-6.83959e-14 -1.4676e-13 0)
(-1.63192e-13 -8.52334e-14 0)
(-2.68452e-13 -1.4475e-13 0)
(-3.41993e-13 -1.84267e-13 0)
(-1.74193e-13 -2.20707e-13 0)
(7.0006e-15 -2.02409e-13 0)
(1.28074e-14 -2.17804e-13 0)
(-2.57139e-14 -2.9413e-13 0)
(-1.05324e-13 -2.38943e-13 0)
(-7.16641e-14 -7.2311e-14 0)
(3.34034e-14 -7.47278e-14 0)
(1.30506e-13 -9.06745e-14 0)
(8.18691e-14 -1.05846e-13 0)
(3.06088e-14 -4.34658e-15 0)
(-2.73729e-14 -3.94805e-14 0)
(-4.47753e-14 -2.04263e-13 0)
(-1.199e-13 -2.38408e-13 0)
(-1.0012e-13 -1.58573e-13 0)
(-1.74942e-13 -1.77627e-13 0)
(-3.09248e-13 -2.65107e-13 0)
(-3.82383e-13 -2.22685e-13 0)
(-2.2504e-13 -1.3052e-13 0)
(1.81668e-14 -6.81029e-14 0)
(1.18963e-13 -1.78413e-13 0)
(5.58489e-14 -2.38053e-13 0)
(-5.07962e-14 -1.71996e-13 0)
(-7.4926e-14 -7.58829e-14 0)
(1.89478e-15 -3.18718e-14 0)
(5.1977e-14 -8.64432e-14 0)
(6.04256e-15 -5.22821e-14 0)
(-2.34164e-14 -6.94587e-14 0)
(-1.8796e-13 -1.13313e-13 0)
(-2.00642e-13 -9.20779e-14 0)
(-2.00112e-13 -2.25295e-14 0)
(7.70782e-15 -1.99905e-15 0)
(2.33294e-13 8.43871e-14 0)
(8.41138e-14 1.4214e-14 0)
(5.03249e-15 7.59196e-14 0)
(1.08361e-13 6.51278e-14 0)
(7.16741e-14 -2.45822e-14 0)
(-7.47539e-14 -1.86498e-13 0)
(-1.8682e-13 -2.94284e-13 0)
(-1.50963e-13 -2.96264e-13 0)
(-1.85248e-13 -2.37216e-13 0)
(-1.68499e-13 -2.7449e-13 0)
(4.68512e-14 -2.41687e-13 0)
(-1.74536e-14 -2.60428e-13 0)
(-1.61404e-14 -1.91262e-13 0)
(2.29623e-14 -2.01666e-13 0)
(9.36661e-14 -1.77827e-13 0)
(9.06087e-14 -1.91491e-13 0)
(6.95815e-14 -1.43634e-13 0)
(1.84638e-13 -1.82657e-13 0)
(1.56363e-13 -2.85794e-13 0)
(-1.64906e-14 -2.74207e-13 0)
(-1.10351e-13 -2.17759e-13 0)
(-1.44162e-13 -2.58885e-13 0)
(-2.23872e-13 -2.84546e-13 0)
(-2.15064e-13 -2.66259e-13 0)
(-1.32671e-13 -3.10848e-13 0)
(-5.33369e-14 -2.64453e-13 0)
(-8.38078e-14 -2.85529e-13 0)
(-7.79038e-14 -2.65979e-13 0)
(-3.93595e-14 -1.91801e-13 0)
(4.95022e-14 -2.19419e-13 0)
(9.24439e-14 -2.97703e-13 0)
(1.00739e-13 -3.52274e-13 0)
(2.032e-13 -3.11496e-13 0)
(1.80264e-13 -3.13655e-13 0)
(1.44204e-13 -3.05712e-13 0)
(1.61911e-13 -2.92095e-13 0)
(2.12882e-13 -2.66816e-13 0)
(1.90448e-13 -2.04775e-13 0)
(-2.21104e-14 -2.45875e-13 0)
(1.00648e-14 -2.88258e-13 0)
(-8.59771e-15 -3.40418e-13 0)
(-2.90571e-14 -2.93569e-13 0)
(-1.43997e-14 -2.74271e-13 0)
(-7.99716e-14 -3.02017e-13 0)
(-1.05377e-13 -2.27713e-13 0)
(-1.72076e-13 -2.23709e-13 0)
(-1.85093e-13 -1.631e-13 0)
(-2.12577e-14 -1.7627e-13 0)
(-2.90996e-14 -2.61851e-13 0)
(-2.26665e-14 -3.94332e-13 0)
(9.74825e-14 -3.51603e-13 0)
(-8.76625e-15 -2.74676e-13 0)
(-1.89969e-13 -2.06273e-13 0)
(-2.22001e-13 -1.87169e-13 0)
(-7.45413e-14 -1.51348e-13 0)
(7.12716e-14 -1.08192e-13 0)
(1.26845e-13 -6.43589e-14 0)
(2.68053e-13 -2.06642e-13 0)
(1.81177e-13 -3.00515e-13 0)
(3.72063e-14 -2.57555e-13 0)
(6.33745e-14 -2.68739e-13 0)
(5.84842e-14 -3.25548e-13 0)
(-9.99665e-14 -2.87722e-13 0)
(-1.64035e-13 -3.49834e-13 0)
(-1.04212e-13 -2.74981e-13 0)
(-5.75874e-14 -1.65081e-13 0)
(4.83371e-14 -1.11441e-13 0)
(5.17004e-14 -1.14411e-13 0)
(-7.42126e-14 -1.89665e-13 0)
(-1.80164e-13 -1.89698e-13 0)
(-1.25028e-13 -1.78557e-13 0)
(-1.01614e-13 -1.0456e-13 0)
(-6.13846e-14 -8.66427e-14 0)
(1.74388e-14 -1.95335e-13 0)
(-3.15491e-15 -2.3344e-13 0)
(3.84477e-15 -2.8331e-13 0)
(-3.62632e-14 -2.48484e-13 0)
(-5.59782e-14 -1.35893e-13 0)
(3.20046e-14 -3.88194e-14 0)
(1.57043e-13 -8.94531e-14 0)
(2.07689e-13 -1.96331e-13 0)
(1.74111e-13 -2.49903e-13 0)
(2.13436e-13 -3.01967e-13 0)
(1.49004e-13 -2.42081e-13 0)
(9.05173e-15 -2.6944e-13 0)
(3.31601e-14 -2.96271e-13 0)
(5.02679e-14 -2.77586e-13 0)
(7.17618e-15 -2.94782e-13 0)
(8.02279e-14 -3.03723e-13 0)
(-2.2605e-14 -2.31249e-13 0)
(-8.38774e-14 -1.70805e-13 0)
(5.36724e-14 -2.03743e-13 0)
(1.05071e-13 -1.20415e-13 0)
(1.42233e-13 -1.39984e-13 0)
(-5.84489e-14 -1.83618e-13 0)
(-1.48936e-13 -2.62438e-13 0)
(-1.59553e-13 -2.23188e-13 0)
(-1.24344e-13 -2.15727e-13 0)
(-7.66515e-14 -2.65562e-13 0)
(1.65208e-14 -2.98216e-13 0)
(2.4349e-14 -2.82201e-13 0)
(-1.33108e-13 -3.11892e-13 0)
(-2.27843e-13 -2.87039e-13 0)
(-1.47306e-13 -2.32603e-13 0)
(-1.9898e-14 -2.72262e-13 0)
(-3.69295e-14 -3.23504e-13 0)
(-1.87132e-14 -3.5969e-13 0)
(5.25869e-14 -2.88305e-13 0)
(1.17031e-13 -1.88243e-13 0)
(6.58036e-14 -2.40528e-13 0)
(-3.44781e-14 -3.14829e-13 0)
(-9.5303e-14 -2.74909e-13 0)
(8.24461e-15 -2.22579e-13 0)
(5.04988e-14 -2.38393e-13 0)
(1.93705e-14 -2.08335e-13 0)
(7.15678e-14 -1.30974e-13 0)
(3.80926e-14 -1.87042e-13 0)
(-6.20073e-14 -2.24627e-13 0)
(-9.6976e-14 -3.02099e-13 0)
(2.79222e-14 -2.78792e-13 0)
(4.25801e-14 -2.24859e-13 0)
(8.05287e-14 -2.69429e-13 0)
(4.7705e-14 -2.12307e-13 0)
(-2.14559e-14 -2.64049e-13 0)
(-4.47841e-14 -3.55416e-13 0)
(5.28491e-15 -3.79786e-13 0)
(1.75868e-13 -3.28432e-13 0)
(2.0181e-13 -2.35615e-13 0)
(1.24389e-13 -2.24427e-13 0)
(5.77556e-14 -2.22797e-13 0)
(6.2353e-14 -3.242e-13 0)
(3.2439e-14 -3.01514e-13 0)
(-5.15845e-14 -3.67038e-13 0)
(-1.00958e-13 -3.63337e-13 0)
(-2.5163e-13 -2.52159e-13 0)
(-3.35384e-13 -2.66538e-13 0)
(-2.3957e-13 -3.08451e-13 0)
(-3.55326e-15 -3.04819e-13 0)
(-2.38437e-14 -2.89205e-13 0)
(-6.20866e-14 -2.60563e-13 0)
(-4.32175e-14 -1.59657e-13 0)
(-6.76601e-14 -7.68627e-14 0)
(-2.09939e-14 -6.1297e-14 0)
(5.76948e-14 -8.47143e-14 0)
(1.70122e-13 -1.38019e-13 0)
(8.6132e-14 -9.39915e-14 0)
(-1.40127e-13 -1.43488e-13 0)
(-1.42962e-13 -2.62212e-13 0)
(-7.03889e-15 -2.62352e-13 0)
(-1.05572e-13 -2.81395e-13 0)
(-2.8238e-13 -2.4535e-13 0)
(-3.7177e-13 -2.828e-13 0)
(-3.06231e-13 -2.02604e-13 0)
(-1.75728e-13 -1.42385e-13 0)
(-3.13569e-14 -9.78872e-14 0)
(5.77283e-14 -1.9567e-13 0)
(1.15276e-13 -2.4895e-13 0)
(6.56454e-14 -2.58098e-13 0)
(5.32422e-15 -2.10287e-13 0)
(-3.01389e-14 -1.50449e-13 0)
(1.10007e-14 -2.38043e-13 0)
(-4.65678e-14 -2.1953e-13 0)
(-1.17352e-13 -2.83812e-13 0)
(-1.97175e-13 -2.40713e-13 0)
(-1.52594e-13 -1.49549e-13 0)
(-1.30985e-13 -4.78351e-14 0)
(1.11453e-13 4.11808e-14 0)
(2.20629e-13 -2.36725e-14 0)
(7.32498e-14 -7.47903e-14 0)
(1.12262e-15 -8.08229e-14 0)
(1.14612e-14 -9.78152e-14 0)
(-6.01072e-14 -1.64734e-13 0)
(-2.00124e-13 -2.46784e-13 0)
(-2.43651e-13 -3.18847e-13 0)
(-1.33908e-13 -2.91462e-13 0)
(-1.27114e-13 -2.5083e-13 0)
(-1.73427e-13 -1.94798e-13 0)
(5.87003e-14 -2.58486e-13 0)
(2.27579e-14 -1.6854e-13 0)
(5.10907e-14 -7.77197e-14 0)
(3.60727e-14 -2.64448e-14 0)
(2.49896e-14 -2.96771e-14 0)
(7.19573e-14 -1.41439e-13 0)
(5.89477e-14 -1.08897e-13 0)
(8.17851e-14 -2.41818e-13 0)
(6.08554e-14 -3.45564e-13 0)
(4.76713e-14 -3.53694e-13 0)
(-6.42663e-14 -2.62055e-13 0)
(-1.43341e-13 -2.91008e-13 0)
(-1.63359e-13 -2.39012e-13 0)
(-1.79728e-13 -1.55913e-13 0)
(-1.38561e-13 -1.38798e-13 0)
(-9.28482e-14 -1.54633e-13 0)
(-7.58704e-14 -1.42214e-13 0)
(-1.2172e-14 -1.63694e-13 0)
(-4.0817e-15 -1.06535e-13 0)
(-2.41648e-14 -1.14857e-13 0)
(-2.70255e-14 -2.51982e-13 0)
(5.49108e-14 -3.10262e-13 0)
(1.68948e-13 -3.06858e-13 0)
(2.02088e-13 -3.65099e-13 0)
(2.27267e-13 -3.8156e-13 0)
(2.28919e-13 -3.45887e-13 0)
(2.29407e-13 -2.69843e-13 0)
(8.35819e-14 -3.34526e-13 0)
(-2.82081e-14 -4.52578e-13 0)
(-3.38218e-14 -3.71304e-13 0)
(-5.5734e-14 -3.89074e-13 0)
(-1.33295e-14 -3.43049e-13 0)
(-4.72152e-14 -3.55991e-13 0)
(4.61143e-15 -2.66933e-13 0)
(-5.6034e-14 -2.00362e-13 0)
(-1.00047e-13 -2.62999e-13 0)
(-1.30517e-13 -2.30248e-13 0)
(-1.02498e-13 -1.92135e-13 0)
(-1.08392e-13 -2.08369e-13 0)
(7.90883e-15 -1.67165e-13 0)
(6.2391e-14 -2.00856e-13 0)
(1.39329e-14 -2.04229e-13 0)
(-1.03528e-13 -2.05156e-13 0)
(-1.63857e-13 -1.49204e-13 0)
(-4.85954e-14 -6.68565e-14 0)
(1.16277e-13 -4.72489e-14 0)
(1.08426e-13 1.40692e-14 0)
(1.20375e-13 -5.93649e-14 0)
(1.74471e-13 -2.02432e-13 0)
(9.50254e-14 -2.21788e-13 0)
(-3.37949e-15 -1.90369e-13 0)
(-1.51357e-14 -2.87521e-13 0)
(-1.02147e-13 -3.49003e-13 0)
(-1.11297e-13 -3.45149e-13 0)
(-2.09276e-14 -3.28097e-13 0)
(2.31288e-14 -1.64323e-13 0)
(2.77293e-14 -8.39254e-14 0)
(8.3628e-15 -1.39381e-13 0)
(-3.66797e-14 -1.31515e-13 0)
(-7.76056e-14 -9.00678e-14 0)
(-4.9174e-14 -8.35759e-14 0)
(-9.86719e-14 -5.54499e-14 0)
(-1.22085e-13 -7.83024e-14 0)
(-6.3985e-14 -9.49747e-14 0)
(-4.60157e-14 -7.06052e-14 0)
(-2.28729e-14 -1.38978e-13 0)
(3.59064e-14 -1.40756e-13 0)
(7.7937e-14 -3.92978e-14 0)
(6.62359e-14 -6.26831e-14 0)
(5.19681e-14 -4.77463e-14 0)
(9.67208e-14 -1.71373e-13 0)
(1.09783e-13 -2.01261e-13 0)
(9.80661e-14 -2.73296e-13 0)
(1.44298e-13 -3.35237e-13 0)
(3.32505e-14 -3.15607e-13 0)
(-1.05331e-14 -2.75059e-13 0)
(2.95645e-14 -3.39239e-13 0)
(5.89978e-14 -2.60727e-13 0)
(7.89221e-14 -2.66014e-13 0)
(4.95734e-14 -3.03991e-13 0)
(-1.24776e-14 -1.83122e-13 0)
(2.28361e-14 -1.40857e-13 0)
(7.14311e-14 -2.13193e-13 0)
(7.7181e-14 -2.87006e-13 0)
(5.21477e-15 -2.6706e-13 0)
(-6.20924e-14 -2.43805e-13 0)
(-1.06484e-13 -1.58155e-13 0)
(-1.89248e-13 -2.0102e-13 0)
(-1.68846e-13 -2.22591e-13 0)
(-2.53249e-14 -1.93431e-13 0)
(-7.628e-14 -2.62025e-13 0)
(-1.46199e-13 -2.97468e-13 0)
(-1.00934e-13 -2.43608e-13 0)
(-8.81731e-14 -1.8215e-13 0)
(-1.12199e-13 -1.89523e-13 0)
(-1.1042e-13 -2.47447e-13 0)
(1.42733e-15 -3.14185e-13 0)
(1.45662e-13 -2.6041e-13 0)
(1.03892e-13 -2.87743e-13 0)
(-1.25035e-14 -2.76252e-13 0)
(-5.391e-14 -2.91838e-13 0)
(4.15909e-14 -2.08919e-13 0)
(2.58438e-14 -1.16143e-13 0)
(4.4537e-14 -1.24056e-13 0)
(7.7078e-14 -9.19523e-14 0)
(3.16266e-14 -9.43877e-14 0)
(-2.83514e-14 -1.52768e-13 0)
(-9.33337e-14 -2.09487e-13 0)
(-6.3044e-14 -1.94548e-13 0)
(4.44816e-14 -1.69855e-13 0)
(3.88744e-14 -1.88236e-13 0)
(4.86545e-14 -1.6306e-13 0)
(5.13051e-16 -2.76842e-13 0)
(-1.00623e-13 -2.31676e-13 0)
(-4.76803e-14 -3.01172e-13 0)
(3.48961e-14 -2.21762e-13 0)
(1.70397e-13 -2.59988e-13 0)
(2.03775e-13 -3.81191e-13 0)
(1.3573e-13 -3.79734e-13 0)
(2.16345e-14 -2.74551e-13 0)
(-1.61007e-14 -2.70882e-13 0)
(-1.21207e-14 -3.82194e-13 0)
(-8.86279e-14 -3.45614e-13 0)
(-1.09873e-14 -3.41169e-13 0)
(-1.89697e-13 -3.75509e-13 0)
(-3.18512e-13 -3.38681e-13 0)
(-2.01627e-13 -2.55536e-13 0)
(-2.56941e-14 -2.90946e-13 0)
(-1.89962e-14 -2.76551e-13 0)
(2.00336e-14 -2.22416e-13 0)
(2.87762e-14 -1.31933e-13 0)
(-4.48411e-14 -9.12005e-14 0)
(-3.6323e-14 -8.83046e-14 0)
(3.11454e-14 -5.53975e-14 0)
(1.36912e-13 -4.94467e-14 0)
(2.67074e-14 -1.24056e-13 0)
(-1.57559e-13 -1.65953e-13 0)
(-1.73426e-13 -1.51505e-13 0)
(-1.01873e-13 -2.00963e-13 0)
(-1.05329e-13 -2.45305e-13 0)
(-1.9724e-13 -2.90056e-13 0)
(-2.91885e-13 -1.70239e-13 0)
(-2.16906e-13 -1.5914e-13 0)
(-1.41487e-13 -1.31063e-13 0)
(-6.41365e-14 -1.24803e-13 0)
(-3.86202e-14 -8.85757e-14 0)
(4.55352e-14 -9.19041e-14 0)
(1.29295e-14 -1.28358e-13 0)
(4.53513e-14 -2.55878e-13 0)
(-2.45538e-14 -3.07155e-13 0)
(-6.84829e-14 -2.8531e-13 0)
(-7.63176e-15 -2.49311e-13 0)
(-5.27608e-14 -1.10819e-13 0)
(-1.13336e-13 -4.22756e-14 0)
(-8.46483e-14 -3.93875e-14 0)
(1.21268e-14 6.70612e-14 0)
(2.21338e-14 -8.24112e-15 0)
(1.03078e-13 -1.39964e-13 0)
(2.18471e-14 -2.08323e-13 0)
(-3.26631e-14 -1.87561e-13 0)
(-7.24163e-15 -2.29837e-13 0)
(-6.40682e-14 -2.41692e-13 0)
(-2.08058e-13 -1.9501e-13 0)
(-2.19574e-13 -1.32144e-13 0)
(-8.21257e-14 -8.97358e-14 0)
(-4.08584e-14 -8.32504e-14 0)
(-6.53097e-14 3.3905e-14 0)
(9.67644e-14 -2.42639e-13 0)
(1.38098e-13 -1.98647e-13 0)
(1.00823e-13 -1.96772e-13 0)
(5.56548e-14 -1.42034e-13 0)
(-2.53826e-14 -1.85282e-13 0)
(1.74729e-14 -1.45307e-13 0)
(-9.34553e-15 -1.2556e-13 0)
(1.71817e-14 -1.81189e-13 0)
(5.83964e-14 -1.46383e-13 0)
(7.27203e-14 -1.75793e-13 0)
(-8.77529e-14 -2.29426e-13 0)
(-1.16869e-13 -3.01826e-13 0)
(-7.8217e-14 -2.31973e-13 0)
(-9.33206e-14 -1.80246e-13 0)
(-1.10627e-13 -8.88728e-14 0)
(-6.0483e-14 -1.27299e-13 0)
(-9.82552e-14 -9.75352e-14 0)
(-4.23921e-14 -9.00849e-14 0)
(-5.39282e-15 -1.35816e-13 0)
(-8.86627e-14 -1.6913e-13 0)
(-6.90032e-14 -2.31355e-13 0)
(3.04106e-14 -1.69964e-13 0)
(1.48689e-13 -2.30678e-13 0)
(1.49927e-13 -2.83194e-13 0)
(1.78167e-13 -3.19721e-13 0)
(2.47748e-13 -2.83923e-13 0)
(2.33022e-13 -3.78917e-13 0)
(2.13315e-14 -4.05965e-13 0)
(-8.80529e-15 -4.15415e-13 0)
(1.82083e-14 -4.08337e-13 0)
(-8.06491e-15 -3.46691e-13 0)
(1.25863e-14 -2.3435e-13 0)
(2.97666e-14 -2.67055e-13 0)
(6.56141e-14 -1.48516e-13 0)
(-8.00105e-14 -1.73332e-13 0)
(-1.66037e-13 -1.99664e-13 0)
(-8.11583e-14 -2.22175e-13 0)
(-3.53412e-14 -1.80678e-13 0)
(-3.01897e-14 -1.07543e-13 0)
(-7.50266e-15 -5.51633e-14 0)
(-7.13628e-15 -1.2072e-13 0)
(-3.4752e-14 -1.33149e-13 0)
(-9.8926e-14 -1.40914e-13 0)
(-1.1158e-13 -5.425e-14 0)
(1.3645e-14 -4.25004e-14 0)
(1.42135e-13 -5.06372e-14 0)
(1.24614e-13 -8.57573e-14 0)
(6.83347e-14 -3.58794e-14 0)
(4.19908e-14 -8.679e-14 0)
(7.27894e-14 -1.63951e-13 0)
(1.01191e-14 -1.99375e-13 0)
(-7.37337e-14 -2.01804e-13 0)
(-1.133e-13 -2.89204e-13 0)
(-8.33568e-14 -1.95458e-13 0)
(1.23168e-14 -2.29836e-13 0)
(1.51536e-13 -1.65527e-13 0)
(7.40802e-14 -1.0413e-13 0)
(1.82731e-14 -2.56813e-14 0)
(-6.43348e-14 1.06752e-14 0)
(-1.21289e-13 -6.93961e-15 0)
(-7.88159e-14 -3.49099e-14 0)
(-9.57574e-14 -7.66264e-14 0)
(-8.10028e-14 -1.05679e-13 0)
(-2.0098e-14 -6.29011e-14 0)
(-2.68018e-14 -3.95798e-14 0)
(-4.9619e-14 -6.52127e-14 0)
(6.30633e-14 -5.51304e-14 0)
(1.9353e-14 -1.29826e-13 0)
(1.34748e-14 -1.34604e-13 0)
(-1.08819e-14 -1.78742e-13 0)
(-2.16718e-14 -1.84581e-13 0)
(4.21931e-14 -2.39399e-13 0)
(6.97592e-14 -3.11886e-13 0)
(1.52232e-13 -3.61709e-13 0)
(3.27621e-14 -2.95828e-13 0)
(-2.64415e-14 -2.93922e-13 0)
(3.21781e-14 -2.85431e-13 0)
(1.12875e-13 -2.95581e-13 0)
(9.11957e-14 -2.57147e-13 0)
(4.09719e-14 -2.38449e-13 0)
(7.29876e-14 -2.28139e-13 0)
(1.28968e-14 -1.79045e-13 0)
(-8.47343e-15 -1.85422e-13 0)
(5.52446e-14 -1.97538e-13 0)
(-1.10099e-14 -2.52829e-13 0)
(4.48457e-16 -2.89308e-13 0)
(-6.88838e-14 -2.50533e-13 0)
(-2.22149e-13 -2.89598e-13 0)
(-8.56949e-14 -2.38844e-13 0)
(-6.01392e-14 -1.83482e-13 0)
(-6.69964e-14 -2.25697e-13 0)
(-1.06874e-13 -1.63739e-13 0)
(-1.2589e-13 -1.99663e-13 0)
(-1.1907e-13 -1.76314e-13 0)
(-1.04402e-13 -2.45169e-13 0)
(-7.49924e-14 -1.98483e-13 0)
(-5.87193e-15 -1.70911e-13 0)
(8.0121e-14 -2.75059e-13 0)
(9.04449e-14 -3.27673e-13 0)
(2.74067e-14 -2.40379e-13 0)
(-7.83163e-15 -1.95493e-13 0)
(9.4531e-14 -1.90626e-13 0)
(9.53408e-14 -1.5828e-13 0)
(4.50428e-14 -1.66247e-13 0)
(3.41063e-14 -1.67984e-13 0)
(5.72523e-14 -1.45377e-13 0)
(-5.55822e-14 -1.07937e-13 0)
(-1.1126e-13 -1.81224e-13 0)
(-4.46871e-14 -1.16467e-13 0)
(3.09069e-14 -1.03407e-13 0)
(2.00763e-14 -1.52975e-13 0)
(-1.1516e-14 -1.51971e-13 0)
(-5.50902e-14 -1.72388e-13 0)
(-4.16582e-14 -2.20751e-13 0)
(-2.80134e-14 -1.78777e-13 0)
(4.0984e-14 -2.30967e-13 0)
(7.04619e-14 -1.86232e-13 0)
(1.0789e-13 -2.8849e-13 0)
(1.85421e-13 -2.73983e-13 0)
(1.40625e-13 -3.12334e-13 0)
(-1.82825e-14 -2.52429e-13 0)
(-1.48388e-14 -2.67569e-13 0)
(-6.22042e-14 -2.05932e-13 0)
(-1.06794e-13 -2.07851e-13 0)
(-1.6088e-13 -2.56108e-13 0)
(-2.10626e-13 -2.20144e-13 0)
(-1.98023e-13 -1.5603e-13 0)
(-4.19647e-14 -2.02099e-13 0)
(-2.41532e-14 -1.55251e-13 0)
(4.24067e-17 -1.41648e-13 0)
(4.62618e-14 -1.16398e-13 0)
(4.81449e-15 -9.11443e-14 0)
(1.01228e-14 -2.52146e-14 0)
(4.09671e-14 4.58441e-14 0)
(8.62834e-14 5.29755e-14 0)
(1.84453e-15 -4.49853e-14 0)
(-1.31328e-13 -9.27836e-14 0)
(-1.83116e-13 -3.81322e-14 0)
(-9.98551e-14 -1.17531e-13 0)
(-1.59846e-13 -1.06104e-13 0)
(-2.30409e-13 -2.13177e-13 0)
(-2.14738e-13 -1.52818e-13 0)
(-2.00597e-13 -7.59629e-14 0)
(-9.22861e-14 -3.9461e-14 0)
(-2.68804e-14 -2.44826e-16 0)
(3.56033e-14 5.63064e-14 0)
(4.84224e-14 3.26748e-14 0)
(-1.02335e-13 -5.46862e-14 0)
(-9.34296e-14 -9.69639e-14 0)
(-2.0215e-14 -2.30786e-13 0)
(2.92938e-14 -1.44979e-13 0)
(7.26026e-14 -2.86272e-14 0)
(6.99343e-14 8.12556e-14 0)
(-1.41289e-13 1.11046e-13 0)
(-9.89239e-14 8.10542e-14 0)
(-4.59883e-14 -1.19531e-14 0)
(-3.91409e-14 -8.24743e-14 0)
(1.64303e-14 -7.48687e-14 0)
(-1.87658e-15 -1.13789e-13 0)
(-6.43863e-15 -6.44407e-14 0)
(-3.08579e-14 -1.79825e-14 0)
(-5.11905e-14 -4.08072e-14 0)
(-1.41941e-13 -3.82594e-15 0)
(-1.17383e-13 1.39639e-14 0)
(-4.35829e-14 9.80921e-14 0)
(3.32236e-14 4.4034e-14 0)
(4.63208e-14 1.21149e-13 0)
(1.34587e-13 -2.04146e-13 0)
(9.65375e-14 -2.37068e-13 0)
(1.29777e-13 -2.61766e-13 0)
(7.55901e-14 -2.52661e-13 0)
(2.806e-14 -3.02092e-13 0)
(7.97039e-14 -2.59928e-13 0)
(1.24458e-14 -1.89753e-13 0)
(4.582e-14 -1.34269e-13 0)
(1.14959e-13 -9.76218e-14 0)
(-6.56649e-14 -1.47023e-13 0)
(-1.63753e-13 -2.13615e-13 0)
(-7.76025e-14 -2.35323e-13 0)
(-1.28035e-14 -2.68034e-13 0)
(-6.61925e-14 -2.15539e-13 0)
(-1.08399e-13 -1.70181e-13 0)
(-7.90196e-14 -2.08514e-13 0)
(-6.53318e-14 -2.61412e-13 0)
(-4.94008e-14 -2.12019e-13 0)
(-8.27962e-14 -2.51924e-13 0)
(-1.35732e-13 -2.30985e-13 0)
(1.14935e-14 -1.72704e-13 0)
(7.68558e-14 -1.02709e-13 0)
(1.07187e-13 -7.41032e-14 0)
(1.62345e-13 -1.5543e-13 0)
(2.17765e-13 -1.7644e-13 0)
(1.68362e-13 -2.52094e-13 0)
(1.02386e-13 -3.86663e-13 0)
(4.59944e-14 -4.15024e-13 0)
(1.7338e-14 -3.12832e-13 0)
(8.47524e-15 -3.5679e-13 0)
(1.12795e-13 -3.2769e-13 0)
(8.01887e-14 -2.70954e-13 0)
(9.03869e-14 -2.16257e-13 0)
(9.32992e-14 -2.35416e-13 0)
(-7.49356e-14 -2.43813e-13 0)
(-1.03391e-13 -1.78075e-13 0)
(-7.08141e-14 -1.57766e-13 0)
(-6.96125e-14 -1.95272e-13 0)
(-7.7772e-15 -1.85307e-13 0)
(-1.1634e-14 -1.78033e-13 0)
(-3.67887e-14 -2.32073e-13 0)
(9.82535e-15 -2.32044e-13 0)
(4.13953e-14 -1.19049e-13 0)
(-5.23679e-14 -3.67454e-14 0)
(-4.26763e-14 -4.96746e-16 0)
(6.41616e-14 -5.85456e-14 0)
(1.44828e-13 -5.61971e-14 0)
(8.04224e-14 -1.57418e-14 0)
(-2.30357e-14 -8.8863e-14 0)
(2.01501e-15 -1.50715e-13 0)
(-1.17091e-14 -1.69373e-13 0)
(-1.00461e-13 -2.0638e-13 0)
(-8.78289e-14 -2.14224e-13 0)
(-4.41057e-14 -1.04646e-13 0)
(4.49118e-14 -1.02353e-13 0)
(1.57099e-13 -6.35074e-14 0)
(1.2644e-13 -1.3781e-13 0)
(7.59238e-14 -9.53136e-14 0)
(-1.19243e-14 -1.25377e-13 0)
(-5.77793e-14 -7.80969e-14 0)
(-6.62549e-14 -2.35771e-14 0)
(-1.74251e-13 -5.62969e-14 0)
(-1.21693e-13 -7.48444e-14 0)
(-5.713e-15 -8.48585e-14 0)
(-7.31874e-14 -1.40714e-13 0)
(-5.7621e-14 -1.42414e-13 0)
(1.87431e-14 -2.08724e-13 0)
(5.2499e-14 -2.79998e-13 0)
(-4.70611e-15 -2.25404e-13 0)
(-6.53077e-14 -2.5809e-13 0)
(-1.93866e-14 -2.30356e-13 0)
(-9.60699e-15 -2.19517e-13 0)
(4.42065e-14 -2.45804e-13 0)
(1.73697e-13 -2.8235e-13 0)
(6.2297e-14 -2.78353e-13 0)
(-1.6528e-14 -2.2037e-13 0)
(3.71489e-14 -2.54324e-13 0)
(8.98762e-14 -2.17762e-13 0)
(1.18843e-13 -2.36612e-13 0)
(8.63999e-14 -1.9355e-13 0)
(4.87947e-14 -2.8848e-13 0)
(5.59713e-14 -2.66312e-13 0)
(2.81444e-14 -2.50318e-13 0)
(-2.0876e-14 -2.36165e-13 0)
(-5.73647e-14 -3.09588e-13 0)
(-2.2026e-14 -2.89289e-13 0)
(-1.13715e-13 -3.53743e-13 0)
(-1.19989e-13 -2.92671e-13 0)
(-5.85236e-14 -2.39309e-13 0)
(-7.88448e-14 -3.32719e-13 0)
(-5.48751e-14 -3.071e-13 0)
(-1.12507e-13 -2.91089e-13 0)
(-8.12514e-14 -2.3647e-13 0)
(-9.59891e-14 -1.49799e-13 0)
(-1.3372e-13 -1.79432e-13 0)
(-3.68394e-14 -1.65626e-13 0)
(-5.76406e-14 -1.37293e-13 0)
(7.63096e-15 -2.13062e-13 0)
(1.20357e-13 -2.7314e-13 0)
(3.95654e-14 -2.62121e-13 0)
(1.84941e-14 -2.2594e-13 0)
(1.20939e-13 -2.39622e-13 0)
(6.5228e-14 -1.9365e-13 0)
(2.9034e-14 -2.16702e-13 0)
(7.20917e-14 -1.80238e-13 0)
(5.73811e-14 -1.72542e-13 0)
(-9.48721e-14 -2.10765e-13 0)
(-8.43757e-14 -2.3003e-13 0)
(6.84852e-15 -1.81884e-13 0)
(2.95968e-14 -1.65019e-13 0)
(3.22739e-14 -9.81447e-14 0)
(8.51983e-15 -1.98442e-13 0)
(-1.12051e-13 -2.15816e-13 0)
(-9.33539e-14 -2.83396e-13 0)
(-1.35064e-14 -2.52362e-13 0)
(8.75081e-14 -2.23987e-13 0)
(1.19781e-13 -1.85193e-13 0)
(1.36908e-13 -2.2519e-13 0)
(1.08976e-13 -2.23597e-13 0)
(6.33607e-14 -3.03757e-13 0)
(8.91312e-14 -2.57097e-13 0)
(5.78248e-14 -2.0399e-13 0)
(-2.62628e-14 -1.6222e-13 0)
(-1.30599e-13 -2.06562e-13 0)
(-2.01269e-13 -1.53828e-13 0)
(-2.07077e-13 -1.12687e-13 0)
(-1.76962e-13 -7.98133e-14 0)
(-6.38925e-14 -1.42228e-13 0)
(-3.15502e-15 -8.23727e-14 0)
(3.0493e-14 -4.04886e-14 0)
(7.23037e-14 -5.64225e-14 0)
(8.19716e-14 -4.18278e-14 0)
(8.09594e-14 3.76607e-15 0)
(6.38305e-14 -2.55004e-14 0)
(3.55592e-14 -3.55797e-14 0)
(-5.33807e-14 -1.02845e-13 0)
(-1.40649e-13 -1.02338e-13 0)
(-2.34371e-13 -1.07627e-13 0)
(-1.84155e-13 -1.46188e-13 0)
(-1.83169e-13 -1.89398e-13 0)
(-2.43899e-13 -1.11584e-13 0)
(-1.43589e-13 -1.27982e-13 0)
(-9.98925e-14 -3.30063e-15 0)
(-6.40548e-14 7.24446e-14 0)
(-5.18388e-14 5.63589e-14 0)
(-1.97107e-14 8.91918e-16 0)
(-5.98339e-14 -3.88282e-14 0)
(-1.10397e-13 -1.24453e-13 0)
(-1.33179e-13 -1.43228e-13 0)
(-6.87904e-15 -1.52495e-13 0)
(1.7036e-13 -1.01705e-13 0)
(1.54211e-13 3.46536e-15 0)
(5.89423e-14 -5.24396e-14 0)
(-7.38778e-14 -2.3432e-14 0)
(-1.76694e-13 1.95988e-14 0)
(-8.37009e-14 -6.278e-14 0)
(-1.66761e-14 -3.28075e-14 0)
(-1.96949e-14 -3.68455e-14 0)
(-9.47681e-16 -2.36598e-14 0)
(9.41631e-14 -5.07448e-14 0)
(4.74401e-14 1.92256e-14 0)
(-3.91658e-14 6.76369e-15 0)
(-1.59863e-13 6.86711e-14 0)
(-8.9297e-14 1.21598e-13 0)
(-3.26618e-14 1.45319e-13 0)
(-1.99562e-14 1.13206e-13 0)
(8.744e-14 6.06232e-14 0)
(1.23272e-13 -1.30342e-13 0)
(9.2361e-14 -2.15572e-13 0)
(1.21686e-13 -2.37078e-13 0)
(2.4452e-14 -2.51834e-13 0)
(2.47128e-14 -1.99266e-13 0)
(1.21865e-13 -2.42401e-13 0)
(8.55793e-14 -3.12549e-13 0)
(6.25409e-14 -1.90074e-13 0)
(1.0047e-13 -2.13526e-13 0)
(-6.28007e-14 -2.15197e-13 0)
(-1.49361e-13 -2.8618e-13 0)
(-9.38934e-14 -2.65584e-13 0)
(-3.72673e-14 -2.69931e-13 0)
(-1.62782e-14 -2.84784e-13 0)
(-9.96974e-14 -2.47475e-13 0)
(-1.62678e-13 -2.21681e-13 0)
(-9.14925e-14 -2.58004e-13 0)
(-3.49035e-14 -2.59791e-13 0)
(-1.97941e-14 -2.15736e-13 0)
(-4.86555e-14 -1.53597e-13 0)
(-1.0556e-14 -8.05571e-14 0)
(1.17562e-13 -1.4148e-13 0)
(1.37313e-13 -9.47385e-14 0)
(9.12471e-14 -1.18255e-13 0)
(1.14808e-13 -1.86777e-13 0)
(6.95957e-14 -2.33057e-13 0)
(4.51714e-14 -2.51267e-13 0)
(7.99202e-14 -3.0067e-13 0)
(8.24856e-14 -2.73494e-13 0)
(-2.06198e-14 -2.81828e-13 0)
(8.56878e-14 -2.95274e-13 0)
(1.2346e-13 -3.6223e-13 0)
(9.42293e-14 -2.74173e-13 0)
(7.6151e-14 -2.98519e-13 0)
(-5.51208e-17 -2.32889e-13 0)
(-8.34438e-14 -2.00967e-13 0)
(-1.33214e-13 -1.96262e-13 0)
(-8.91187e-14 -1.58781e-13 0)
(-2.11211e-14 -1.50857e-13 0)
(-2.00213e-14 -2.31697e-13 0)
(-2.57145e-14 -2.82853e-13 0)
(5.70756e-14 -2.58332e-13 0)
(1.25012e-13 -2.06093e-13 0)
(4.65256e-14 -1.56088e-13 0)
(-3.84152e-14 -6.25288e-14 0)
(5.79685e-14 -1.01465e-13 0)
(1.87207e-13 -3.96555e-14 0)
(4.95619e-14 -9.53683e-14 0)
(-1.1792e-13 -8.19783e-14 0)
(-2.14218e-14 -1.28844e-13 0)
(-3.96895e-14 -1.5631e-13 0)
(-9.78681e-14 -1.96768e-13 0)
(-3.16823e-14 -1.66314e-13 0)
(1.71008e-14 -1.27779e-13 0)
(6.41365e-14 -5.5533e-14 0)
(1.06136e-13 -1.46595e-13 0)
(6.48169e-14 -2.29052e-13 0)
(3.86575e-14 -2.52133e-13 0)
(-7.31128e-16 -2.89675e-13 0)
(-2.00625e-14 -2.44818e-13 0)
(-4.88532e-14 -2.09995e-13 0)
(-1.36354e-13 -1.84459e-13 0)
(-1.11574e-13 -1.04744e-13 0)
(-7.94871e-14 -6.34822e-14 0)
(-1.31076e-13 -5.84224e-14 0)
(-6.75412e-14 -5.13749e-14 0)
(-2.33414e-14 -1.34426e-13 0)
(4.24204e-14 -1.77387e-13 0)
(4.68259e-14 -2.62191e-13 0)
(-3.48757e-14 -2.37641e-13 0)
(-2.83666e-15 -2.28016e-13 0)
(3.69059e-14 -1.69191e-13 0)
(4.94292e-14 -1.29167e-13 0)
(1.29216e-13 -1.70398e-13 0)
(8.32033e-14 -1.9457e-13 0)
(2.63915e-14 -1.71805e-13 0)
(3.73392e-14 -1.82555e-13 0)
(5.43531e-14 -1.36073e-13 0)
(6.56827e-14 -1.89196e-13 0)
(2.70077e-14 -2.05771e-13 0)
(-1.67704e-14 -2.6861e-13 0)
(3.16858e-14 -3.46604e-13 0)
(7.41432e-15 -3.87666e-13 0)
(7.77879e-15 -3.60839e-13 0)
(-3.75298e-14 -3.58007e-13 0)
(-1.78392e-14 -3.67731e-13 0)
(-1.14542e-13 -4.0327e-13 0)
(-9.31238e-14 -3.47271e-13 0)
(-1.08164e-13 -4.24744e-13 0)
(-1.41622e-13 -4.06439e-13 0)
(-1.68705e-14 -3.65548e-13 0)
(-7.44185e-15 -3.21826e-13 0)
(-3.63332e-14 -2.09409e-13 0)
(-3.58382e-14 -2.14594e-13 0)
(-1.08254e-13 -1.96267e-13 0)
(-5.86288e-14 -2.02027e-13 0)
(-8.30581e-14 -1.55961e-13 0)
(-4.16785e-14 -2.11167e-13 0)
(5.47456e-14 -2.03659e-13 0)
(4.31685e-14 -2.32828e-13 0)
(4.92213e-14 -1.78644e-13 0)
(1.36214e-13 -2.15288e-13 0)
(9.18305e-14 -2.30474e-13 0)
(5.90936e-14 -1.73264e-13 0)
(7.86242e-14 -1.44288e-13 0)
(1.2529e-14 -1.56838e-13 0)
(-1.20268e-13 -2.03981e-13 0)
(-6.76237e-14 -1.44478e-13 0)
(1.51098e-14 -2.00933e-13 0)
(1.16769e-13 -1.98969e-13 0)
(-7.83565e-15 -1.97096e-13 0)
(-1.04822e-13 -2.16021e-13 0)
(-1.59406e-13 -3.12298e-13 0)
(-9.9248e-14 -2.38045e-13 0)
(4.80862e-14 -1.96575e-13 0)
(1.23633e-13 -1.86332e-13 0)
(8.68073e-14 -2.87692e-13 0)
(9.2731e-14 -2.82711e-13 0)
(1.20185e-13 -3.43766e-13 0)
(1.38203e-13 -3.01234e-13 0)
(8.11605e-14 -2.94222e-13 0)
(1.91111e-14 -2.92235e-13 0)
(-3.20403e-14 -3.09451e-13 0)
(-1.24167e-13 -3.02407e-13 0)
(-1.19686e-13 -2.53809e-13 0)
(-1.7208e-13 -1.80361e-13 0)
(-2.1378e-13 -1.60031e-13 0)
(-6.66961e-14 -1.24187e-13 0)
(6.2662e-14 -1.37904e-13 0)
(4.21067e-14 -8.61658e-14 0)
(3.81854e-14 -1.21706e-13 0)
(4.10829e-14 -1.87262e-13 0)
(2.3261e-14 -1.83536e-13 0)
(3.00419e-14 -1.81832e-13 0)
(3.12105e-14 -2.51125e-13 0)
(-8.15746e-14 -2.87044e-13 0)
(-1.42893e-13 -2.37622e-13 0)
(-2.09649e-13 -2.21841e-13 0)
(-1.44301e-13 -2.02607e-13 0)
(-1.36086e-13 -2.1284e-13 0)
(-2.06422e-13 -1.42532e-13 0)
(-1.04855e-13 -1.63274e-13 0)
(-2.20795e-14 -1.13654e-13 0)
(-7.80853e-14 -1.18052e-13 0)
(-1.20924e-13 -1.60146e-13 0)
(-6.3964e-14 -1.89371e-13 0)
(-6.87506e-14 -2.28094e-13 0)
(-1.56483e-13 -1.96536e-13 0)
(-1.25055e-13 -2.19795e-13 0)
(-1.80918e-14 -2.03861e-13 0)
(1.76435e-13 -2.39842e-13 0)
(2.08476e-13 -1.91931e-13 0)
(4.29004e-14 -2.28385e-13 0)
(-5.67955e-14 -2.10941e-13 0)
(-1.15274e-13 -1.68496e-13 0)
(-8.96601e-14 -1.32486e-13 0)
(-4.5268e-14 -1.02628e-13 0)
(-2.02894e-14 -9.30801e-14 0)
(-6.99696e-15 -8.00594e-14 0)
(5.52657e-14 -8.83326e-14 0)
(2.05178e-14 -9.64815e-14 0)
(3.37207e-15 -1.38327e-13 0)
(-4.44037e-14 -7.35683e-14 0)
(-6.06634e-14 -1.678e-14 0)
(-7.09873e-14 -1.11167e-14 0)
(-8.60179e-14 -4.10859e-15 0)