/*--------------------------------*- C++ -*----------------------------------*\
  =========                 |
  \\      /  F ield         | OpenFOAM: The Open Source CFD Toolbox
   \\    /   O peration     | Website:  https://openfoam.org
    \\  /    A nd           | Version:  13
     \\/     M anipulation  |
\*---------------------------------------------------------------------------*/
FoamFile
{
    format      ascii;
    class       volVectorField;
    location    "0.0007";
    object      U;
}
// * * * * * * * * * * * * * * * * * * * * * * * * * * * * * * * * * * * * * //

dimensions      [0 1 -1 0 0 0 0];

internalField   nonuniform List<vector> 
33334
(
(-1.89852e-13 -4.48376e-14 0)
(-1.92009e-13 -4.7446e-14 0)
(-2.94456e-14 -7.12527e-15 0)
(5.35555e-14 -2.01633e-14 0)
(8.17425e-14 8.07673e-14 0)
(4.55598e-14 1.24396e-14 0)
(-1.17935e-13 -6.42138e-14 0)
(-9.76498e-14 -1.66527e-13 0)
(-2.25311e-13 -1.447e-13 0)
(-1.68792e-13 -4.61869e-14 0)
(-5.46327e-14 -5.52095e-14 0)
(2.10263e-14 1.72475e-14 0)
(2.71582e-13 1.66609e-14 0)
(3.2059e-13 -1.78421e-13 0)
(2.32307e-13 -2.55161e-13 0)
(1.14317e-13 -1.37373e-13 0)
(-1.8144e-13 -1.21927e-13 0)
(-2.79019e-13 -4.20877e-14 0)
(-1.90641e-13 6.04519e-14 0)
(-8.15814e-15 8.96782e-15 0)
(1.69232e-13 6.60191e-14 0)
(1.45491e-13 5.18117e-14 0)
(1.53562e-13 6.37059e-14 0)
(1.60469e-13 -5.13662e-14 0)
(-4.68548e-14 -1.01507e-13 0)
(-1.7162e-13 -7.71813e-14 0)
(-1.60317e-13 -4.12205e-14 0)
(-5.83205e-14 -1.19772e-13 0)
(-8.15821e-14 -1.56896e-13 0)
(8.52612e-14 -7.37697e-14 0)
(2.66447e-13 -1.19699e-13 0)
(1.10291e-13 -1.0561e-13 0)
(-2.28947e-14 -1.04497e-13 0)
(-3.18198e-14 -8.1423e-14 0)
(6.89502e-14 -1.72945e-13 0)
(9.21155e-14 -2.68525e-13 0)
(7.01419e-14 -2.65016e-13 0)
(4.61074e-14 -1.72655e-13 0)
(-7.95061e-14 -1.15618e-13 0)
(-1.42637e-13 -2.17024e-13 0)
(-1.99247e-13 -1.50655e-13 0)
(-5.32046e-14 -1.10024e-13 0)
(1.02131e-13 -2.1363e-13 0)
(6.04456e-14 -2.45942e-13 0)
(4.85228e-14 -2.02438e-13 0)
(6.92728e-14 -2.05235e-13 0)
(3.56771e-14 -2.43662e-13 0)
(1.32789e-15 -3.2669e-13 0)
(-2.65872e-14 -2.79984e-13 0)
(-2.01766e-14 -2.58535e-13 0)
(-4.50429e-14 -2.58428e-13 0)
(5.76044e-14 -2.68018e-13 0)
(1.74905e-13 -1.75196e-13 0)
(1.89543e-13 -1.22055e-13 0)
(1.62165e-14 -1.53589e-13 0)
(-1.64832e-13 -2.62682e-13 0)
(-3.06256e-13 -1.57004e-13 0)
(-2.07071e-13 -2.02844e-14 0)
(-4.68854e-14 -2.27529e-14 0)
(7.4708e-14 3.55106e-14 0)
(1.39466e-13 -1.2786e-13 0)
(3.61748e-14 -9.47598e-14 0)
(1.31201e-13 -1.07157e-13 0)
(1.84181e-13 -1.33845e-13 0)
(4.0659e-14 -2.20271e-13 0)
(-1.03377e-13 -1.30308e-13 0)
(-2.6593e-13 -1.42664e-13 0)
(-3.68921e-13 -2.02528e-13 0)
(-2.94131e-13 -1.71829e-13 0)
(-2.09631e-13 -9.64244e-15 0)
(-3.30861e-14 2.51195e-14 0)
(4.20416e-14 -5.39473e-14 0)
(-9.10632e-14 -1.33532e-13 0)
(-1.10831e-13 8.54652e-15 0)
(-2.83595e-15 -4.95122e-14 0)
(1.32023e-13 -5.34474e-14 0)
(1.74856e-13 -1.48045e-13 0)
(-8.85862e-14 -5.38e-14 0)
(-1.76469e-13 5.88099e-14 0)
(1.08498e-14 7.70723e-14 0)
(1.33389e-13 -2.11528e-14 0)
(2.03382e-13 4.48344e-14 0)
(2.52841e-13 1.9954e-14 0)
(2.22783e-13 -1.11164e-13 0)
(7.89865e-14 -1.67788e-13 0)
(9.37626e-14 -2.11131e-13 0)
(1.08142e-13 -1.36359e-13 0)
(2.27183e-14 -1.3981e-13 0)
(3.44378e-14 -1.99444e-13 0)
(1.52415e-14 -3.01441e-13 0)
(-1.64011e-13 -1.8406e-13 0)
(-1.21229e-13 -6.0054e-14 0)
(-5.37545e-14 -8.42027e-14 0)
(-2.26103e-14 -1.43301e-13 0)
(-2.40707e-14 -3.85094e-14 0)
(2.38976e-14 2.29814e-14 0)
(9.92272e-14 -3.60748e-14 0)
(-3.1197e-14 -1.50132e-13 0)
(-2.02892e-13 -6.92161e-14 0)
(-1.4707e-13 1.76996e-15 0)
(-4.68405e-14 -1.4758e-13 0)
(-1.54712e-13 -2.66514e-13 0)
(4.20929e-15 -1.82992e-13 0)
(1.3819e-13 -3.04668e-13 0)
(1.05988e-13 -1.94362e-13 0)
(-1.3997e-14 -2.47587e-13 0)
(-1.58135e-13 -1.48976e-13 0)
(-1.20775e-14 -1.0192e-13 0)
(1.01561e-13 -9.31721e-14 0)
(-5.29141e-14 -1.16973e-13 0)
(2.52759e-14 -2.26849e-13 0)
(1.66657e-13 -2.6956e-13 0)
(1.59306e-13 -3.54759e-13 0)
(9.55598e-14 -2.61266e-13 0)
(-9.20004e-14 -2.75245e-13 0)
(-1.98529e-13 -1.14942e-13 0)
(-1.05153e-13 -6.48871e-14 0)
(-5.63272e-14 -1.62791e-13 0)
(-1.69288e-13 -3.07051e-13 0)
(-2.63078e-13 -2.11016e-13 0)
(-1.45029e-13 -5.66539e-14 0)
(-8.74721e-14 -3.74186e-14 0)
(-4.48809e-14 -7.22812e-14 0)
(-5.26466e-14 -9.21199e-16 0)
(-1.96397e-14 4.9955e-15 0)
(5.26901e-14 3.67952e-16 0)
(-2.7367e-15 -4.2212e-14 0)
(8.91002e-14 -1.76668e-14 0)
(1.33276e-13 -1.80566e-13 0)
(-1.65946e-14 -1.16769e-13 0)
(-1.00831e-13 -1.67112e-13 0)
(-1.00954e-13 -1.02244e-13 0)
(2.38792e-14 -7.15317e-14 0)
(1.75745e-13 -1.05076e-13 0)
(1.14703e-13 -2.35311e-13 0)
(1.17057e-13 -3.05722e-13 0)
(6.81615e-14 -2.23719e-13 0)
(1.13472e-13 -1.8514e-13 0)
(1.4108e-13 -9.68005e-14 0)
(4.7211e-14 -2.05328e-13 0)
(-1.26946e-13 -1.30087e-13 0)
(-1.80918e-13 -1.61786e-13 0)
(-1.39601e-13 -1.34549e-13 0)
(-8.37702e-14 -1.74185e-13 0)
(-4.47218e-14 -1.63622e-15 0)
(1.68485e-13 8.49251e-14 0)
(9.31901e-14 2.85673e-14 0)
(3.0551e-14 -1.99756e-14 0)
(9.0675e-14 -3.93039e-14 0)
(3.26856e-14 -6.95413e-14 0)
(4.27619e-14 -1.56723e-13 0)
(5.63529e-14 -2.62568e-13 0)
(1.33e-14 -2.09304e-13 0)
(1.90799e-14 -2.60584e-13 0)
(-7.24334e-15 -1.9386e-13 0)
(-1.04884e-13 -1.92186e-13 0)
(-1.44264e-13 -9.64445e-14 0)
(-7.33846e-14 -2.93965e-14 0)
(-5.56254e-14 -4.54788e-14 0)
(-1.54037e-13 -2.92684e-14 0)
(-1.26894e-14 -1.45609e-13 0)
(1.69502e-13 -1.15195e-13 0)
(2.47335e-13 -2.13503e-13 0)
(2.25408e-13 -1.86196e-13 0)
(1.468e-13 -2.73805e-13 0)
(7.50556e-14 -1.68203e-13 0)
(-2.90326e-14 -1.0842e-13 0)
(-2.01704e-13 -6.88983e-14 0)
(-1.60952e-13 3.44635e-14 0)
(-4.45906e-14 7.1265e-14 0)
(8.38008e-14 -5.25334e-14 0)
(1.57956e-13 6.83031e-14 0)
(-1.37344e-14 -4.22421e-14 0)
(-1.5864e-13 -1.45075e-13 0)
(-1.05201e-13 -1.65856e-13 0)
(-1.36927e-13 -1.7443e-13 0)
(-1.00415e-13 -4.66614e-14 0)
(-4.36793e-14 1.7202e-14 0)
(8.13831e-14 1.1812e-13 0)
(2.20952e-13 9.69165e-14 0)
(1.5419e-13 -8.05758e-14 0)
(2.44258e-13 -1.56015e-13 0)
(1.93841e-13 -1.75434e-13 0)
(-1.15718e-13 -1.2129e-13 0)
(-2.08858e-13 1.75432e-14 0)
(-1.51461e-13 1.20415e-13 0)
(-5.05718e-14 1.28327e-13 0)
(1.65459e-13 5.51146e-14 0)
(1.99453e-13 -2.32812e-14 0)
(1.4037e-13 1.73506e-14 0)
(1.1104e-13 -1.868e-13 0)
(-8.58777e-15 -3.04392e-13 0)
(-1.56573e-13 -1.94144e-13 0)
(-2.47151e-13 -1.82172e-13 0)
(-2.00109e-13 -1.82074e-13 0)
(-1.78318e-14 -2.36904e-13 0)
(1.63277e-13 -1.4324e-13 0)
(2.30978e-13 -2.83455e-13 0)
(1.51243e-13 -3.64771e-13 0)
(4.08318e-14 -3.37854e-13 0)
(-5.18293e-14 -2.86566e-13 0)
(1.68101e-14 -2.71647e-13 0)
(4.7679e-14 -2.38827e-13 0)
(5.91486e-14 -2.75514e-13 0)
(1.19811e-13 -2.34508e-13 0)
(-1.86502e-14 -2.5618e-13 0)
(-1.54621e-13 -1.76897e-13 0)
(-1.25024e-13 -8.5817e-14 0)
(-4.01998e-14 -6.3363e-14 0)
(8.39391e-14 -1.6898e-13 0)
(1.04229e-14 -2.96802e-13 0)
(1.57743e-15 -2.85636e-13 0)
(2.65946e-14 -2.96752e-13 0)
(4.60001e-15 -3.48277e-13 0)
(-4.70088e-15 -3.40488e-13 0)
(-6.61408e-14 -3.17015e-13 0)
(-3.37403e-14 -3.62607e-13 0)
(4.9467e-14 -2.94143e-13 0)
(1.20315e-13 -1.57423e-13 0)
(1.99965e-13 -1.45378e-13 0)
(1.51712e-13 -2.24528e-13 0)
(-6.07261e-14 -3.05044e-13 0)
(-1.9074e-13 -2.47645e-13 0)
(-2.49535e-13 -1.81232e-13 0)
(-1.58234e-13 -4.56823e-14 0)
(3.83957e-14 -1.15683e-13 0)
(1.54844e-13 -4.35306e-14 0)
(8.82621e-14 -9.95928e-14 0)
(4.68591e-15 -1.66911e-13 0)
(1.04761e-13 -1.15618e-13 0)
(2.11761e-13 -2.28281e-13 0)
(2.08517e-14 -2.06029e-13 0)
(-1.43814e-13 -3.07644e-13 0)
(-2.87711e-13 -2.04043e-13 0)
(-3.57252e-13 -1.97661e-13 0)
(-2.82113e-13 -2.09862e-13 0)
(-2.25515e-13 -8.46501e-14 0)
(-9.7059e-14 -7.60281e-15 0)
(3.81784e-14 -5.71488e-14 0)
(-2.13294e-14 -1.12417e-13 0)
(-1.13268e-13 -8.89572e-14 0)
(-4.44393e-14 -9.29044e-14 0)
(9.90941e-14 -1.06664e-13 0)
(1.50653e-13 -2.11505e-13 0)
(-1.39361e-14 -1.33973e-13 0)
(-1.12139e-13 2.84116e-14 0)
(-3.05425e-14 -6.71249e-15 0)
(8.0538e-14 -1.1394e-14 0)
(1.50778e-13 -7.76865e-14 0)
(1.78346e-13 -7.33888e-14 0)
(1.7376e-13 -2.5971e-13 0)
(1.48063e-13 -2.86543e-13 0)
(1.67013e-13 -2.5975e-13 0)
(9.69325e-14 -3.095e-13 0)
(1.39425e-14 -3.56279e-13 0)
(1.18902e-14 -3.38912e-13 0)
(5.98842e-14 -2.5639e-13 0)
(-5.45769e-14 -2.28351e-13 0)
(-1.18145e-13 -1.33054e-13 0)
(-8.52276e-14 -2.0995e-13 0)
(-4.55693e-14 -2.03576e-13 0)
(-1.10246e-15 -1.58353e-13 0)
(1.52834e-14 -1.37594e-13 0)
(3.52145e-14 -1.74503e-13 0)
(-4.99853e-14 -2.31703e-13 0)
(-1.52997e-13 -1.9683e-13 0)
(-2.00642e-13 -1.82529e-13 0)
(-2.01529e-13 -2.51534e-13 0)
(-1.30054e-13 -2.54057e-13 0)
(-1.46621e-14 -1.94144e-13 0)
(1.2848e-13 -3.10761e-13 0)
(1.4023e-13 -2.76141e-13 0)
(-1.47482e-14 -2.46402e-13 0)
(-1.13148e-13 -2.46377e-13 0)
(1.18616e-14 -1.35891e-13 0)
(9.04021e-14 -2.52898e-13 0)
(-2.01021e-14 -2.65478e-13 0)
(3.87276e-14 -2.59211e-13 0)
(1.31138e-13 -2.73705e-13 0)
(2.31681e-13 -3.29222e-13 0)
(1.55714e-13 -2.9001e-13 0)
(-2.42294e-14 -2.24115e-13 0)
(-1.76519e-13 -1.33198e-13 0)
(-2.20572e-13 -9.26825e-14 0)
(-2.39698e-13 -2.0118e-13 0)
(-2.32141e-13 -2.64044e-13 0)
(-1.41819e-13 -1.8378e-13 0)
(-8.82521e-14 -5.90904e-14 0)
(-9.30226e-14 -1.11758e-13 0)
(-2.73792e-14 -6.36761e-14 0)
(-2.31343e-14 -1.25691e-14 0)
(-2.02233e-14 5.94924e-14 0)
(7.62673e-14 -4.85356e-14 0)
(6.88433e-15 -6.44836e-14 0)
(-4.19197e-14 -1.43298e-13 0)
(7.66063e-14 -2.48422e-13 0)
(3.4216e-14 -2.91705e-13 0)
(-9.72472e-14 -1.75023e-13 0)
(-9.07194e-14 -9.29681e-14 0)
(1.36152e-14 -3.19483e-14 0)
(8.83992e-14 -1.09613e-13 0)
(4.44967e-14 -2.07226e-13 0)
(1.34528e-13 -2.22916e-13 0)
(1.28205e-13 -2.12361e-13 0)
(1.70193e-13 -2.06674e-13 0)
(1.34409e-13 -2.86536e-13 0)
(1.10357e-15 -2.79841e-13 0)
(-1.82552e-13 -2.47983e-13 0)
(-2.16503e-13 -2.02647e-13 0)
(-1.56233e-13 -1.70767e-13 0)
(-6.45903e-15 -1.52864e-13 0)
(9.64538e-14 1.12062e-14 0)
(2.24136e-13 4.77565e-14 0)
(1.62741e-13 -3.09954e-14 0)
(1.76696e-14 1.01294e-14 0)
(1.85893e-14 -8.69206e-14 0)
(4.8337e-15 -1.17505e-13 0)
(2.11387e-14 -1.01054e-13 0)
(3.13581e-14 -1.35756e-13 0)
(-5.5035e-15 -1.96968e-13 0)
(3.18552e-14 -1.9013e-13 0)
(4.24598e-14 -2.35357e-13 0)
(-7.08115e-14 -2.08883e-13 0)
(-1.32202e-13 -2.37263e-13 0)
(-3.6193e-14 -1.42259e-13 0)
(9.44281e-15 -1.81329e-13 0)
(-6.95157e-14 -1.16974e-13 0)
(-2.69172e-14 -6.64589e-14 0)
(9.57403e-14 -9.43459e-14 0)
(1.84827e-13 -1.80022e-13 0)
(1.49583e-13 -2.2934e-13 0)
(8.82527e-14 -2.61487e-13 0)
(2.77466e-14 -2.96816e-13 0)
(3.65973e-14 -2.64362e-13 0)
(-5.31191e-14 9.77912e-14 0)
(-1.20568e-13 1.51303e-13 0)
(-1.35471e-13 1.84079e-13 0)
(2.1064e-14 1.26536e-13 0)
(8.55016e-14 1.32476e-14 0)
(-8.85245e-14 -1.34091e-14 0)
(-1.39529e-13 3.40584e-14 0)
(-1.00614e-13 7.8285e-14 0)
(-7.32876e-14 4.25014e-14 0)
(7.78116e-15 1.33023e-13 0)
(6.838e-14 1.14986e-13 0)
(5.36024e-14 1.51554e-13 0)
(1.11809e-13 5.49737e-14 0)
(6.20079e-14 7.45842e-14 0)
(1.43299e-13 2.88411e-14 0)
(1.87288e-13 -6.29061e-14 0)
(9.99634e-17 -5.65927e-15 0)
(-9.80403e-14 1.46741e-13 0)
(-1.21491e-13 1.80572e-13 0)
(-7.88932e-14 2.7179e-13 0)
(3.96496e-14 1.92775e-13 0)
(1.49893e-13 8.94766e-14 0)
(4.17641e-14 -1.90778e-14 0)
(-1.09823e-13 -1.31188e-13 0)
(-9.26337e-14 -2.77127e-13 0)
(-7.69381e-14 -3.41403e-13 0)
(-1.82921e-13 -2.27022e-13 0)
(-1.39794e-13 -1.43057e-13 0)
(-3.34505e-14 -1.2908e-13 0)
(5.82189e-14 -1.17769e-13 0)
(6.79877e-14 -2.17362e-13 0)
(8.10003e-14 -3.56466e-13 0)
(3.33149e-14 -4.21141e-13 0)
(7.82486e-14 -3.63052e-13 0)
(1.12754e-13 -2.88458e-13 0)
(5.44667e-14 -2.84711e-13 0)
(7.72127e-14 -2.8214e-13 0)
(8.73233e-14 -2.87988e-13 0)
(3.53018e-14 -2.66836e-13 0)
(8.49313e-16 -2.0708e-13 0)
(-5.48257e-14 -8.26667e-14 0)
(-8.81789e-14 -1.10961e-13 0)
(-7.11606e-14 -1.74703e-13 0)
(-2.75923e-14 -2.71029e-13 0)
(3.90165e-14 -2.36935e-13 0)
(-2.39984e-14 -2.44011e-13 0)
(-6.13996e-14 -2.60474e-13 0)
(-1.95377e-14 -3.5438e-13 0)
(-8.43232e-14 -3.25611e-13 0)
(-3.3565e-15 -3.21266e-13 0)
(1.38352e-13 -2.90133e-13 0)
(2.11181e-13 -2.67153e-13 0)
(1.47811e-13 -2.16103e-13 0)
(3.78112e-14 -3.21934e-13 0)
(-5.33792e-14 -3.20893e-13 0)
(-1.06425e-13 -3.01305e-13 0)
(-1.5494e-13 -1.75209e-13 0)
(-1.28195e-13 -1.97141e-13 0)
(-8.10515e-15 -2.01932e-13 0)
(1.11359e-13 -2.76342e-13 0)
(7.29538e-14 -3.41263e-13 0)
(4.58621e-14 -3.25826e-13 0)
(9.86666e-14 -2.74517e-13 0)
(1.22908e-13 -2.98445e-13 0)
(-1.26284e-14 -3.51498e-13 0)
(-9.31737e-14 -2.45012e-13 0)
(-2.32658e-13 -2.21382e-13 0)
(-3.89966e-13 -1.89538e-13 0)
(-2.16397e-13 -2.13089e-13 0)
(-1.06041e-13 -8.00109e-14 0)
(-5.0285e-14 -9.77608e-14 0)
(-2.51127e-14 -1.89678e-14 0)
(-6.52463e-14 -5.81463e-14 0)
(-1.13673e-13 -3.3559e-14 0)
(-1.22347e-14 -5.70682e-14 0)
(5.86759e-14 -8.74596e-14 0)
(9.40182e-14 -2.01341e-13 0)
(7.38649e-14 -2.01099e-13 0)
(-2.35896e-14 -1.15471e-13 0)
(-4.59408e-14 -7.84709e-14 0)
(2.4043e-14 -1.55425e-13 0)
(9.47629e-14 -2.27012e-13 0)
(5.17045e-14 -2.11998e-13 0)
(4.52235e-14 -2.50593e-13 0)
(1.48044e-13 -3.45386e-13 0)
(1.31181e-13 -4.22005e-13 0)
(4.85416e-14 -4.10471e-13 0)
(4.75529e-14 -4.20271e-13 0)
(9.1116e-14 -3.1007e-13 0)
(9.60311e-14 -3.05233e-13 0)
(-3.49929e-15 -3.12775e-13 0)
(-6.99048e-14 -2.51346e-13 0)
(-1.2201e-13 -2.66697e-13 0)
(-5.00996e-14 -2.2502e-13 0)
(-9.37527e-15 -2.66617e-13 0)
(-1.57815e-14 -2.67231e-13 0)
(1.24897e-14 -3.43219e-13 0)
(-6.53031e-14 -4.13764e-13 0)
(-1.89379e-13 -3.72174e-13 0)
(-2.19933e-13 -3.70695e-13 0)
(-1.35896e-13 -3.61182e-13 0)
(-3.62913e-14 -2.94596e-13 0)
(-5.61243e-14 -2.10104e-13 0)
(4.32171e-14 -2.75716e-13 0)
(1.19941e-13 -3.07018e-13 0)
(-1.96812e-14 -3.60615e-13 0)
(-7.40349e-14 -2.87837e-13 0)
(-1.33279e-14 -3.01073e-13 0)
(3.62699e-14 -3.54078e-13 0)
(1.10824e-14 -3.68914e-13 0)
(8.02298e-14 -3.11027e-13 0)
(1.35889e-13 -2.84339e-13 0)
(1.85391e-13 -3.0056e-13 0)
(1.75219e-13 -3.4877e-13 0)
(5.32995e-14 -3.05231e-13 0)
(-1.16577e-13 -2.23612e-13 0)
(-2.21207e-13 -2.01182e-13 0)
(-2.93425e-13 -2.61581e-13 0)
(-2.02512e-13 -2.09769e-13 0)
(-5.41597e-14 -1.56583e-13 0)
(-3.21526e-14 -7.3668e-14 0)
(-4.90657e-14 -1.06497e-13 0)
(-9.42377e-15 -1.86984e-14 0)
(2.5521e-14 -5.90903e-14 0)
(-4.31253e-14 -6.51862e-14 0)
(1.04086e-15 -1.0004e-13 0)
(-8.23566e-14 -1.80627e-13 0)
(-1.18202e-13 -2.54433e-13 0)
(1.12492e-14 -2.36788e-13 0)
(6.63671e-14 -3.04864e-13 0)
(3.36677e-14 -2.64384e-13 0)
(-2.07984e-14 -1.29686e-13 0)
(-1.46563e-14 -1.55465e-13 0)
(3.10241e-14 -1.52908e-13 0)
(3.30292e-14 -1.42637e-13 0)
(1.2132e-13 -2.1298e-13 0)
(9.96215e-14 -1.58507e-13 0)
(6.82105e-14 -1.95276e-13 0)
(5.55127e-14 -3.49273e-13 0)
(2.85349e-14 -3.20262e-13 0)
(-9.06295e-14 -1.90791e-13 0)
(-1.63245e-13 -5.94414e-14 0)
(-1.10123e-13 1.49526e-14 0)
(7.13083e-14 -2.34491e-14 0)
(1.76225e-13 -4.39223e-14 0)
(1.55152e-13 2.98529e-14 0)
(1.0135e-13 -9.06299e-14 0)
(1.59806e-14 -3.97268e-14 0)
(-2.45508e-14 -8.61927e-14 0)
(6.97318e-14 -6.39768e-14 0)
(2.77809e-14 -7.92536e-14 0)
(-3.44821e-14 -1.82865e-13 0)
(-7.80854e-14 -1.7578e-13 0)
(-2.83223e-14 -2.43413e-13 0)
(-4.25943e-14 -3.25575e-13 0)
(-8.47935e-14 -3.64229e-13 0)
(-6.66853e-14 -3.12262e-13 0)
(-3.17458e-14 -3.441e-13 0)
(2.70281e-14 -3.07698e-13 0)
(-1.16998e-14 -2.7638e-13 0)
(5.56217e-14 -2.31552e-13 0)
(6.07463e-14 -1.80943e-13 0)
(8.67479e-14 -2.43738e-13 0)
(1.47965e-13 -2.84915e-13 0)
(4.31541e-14 -2.27144e-13 0)
(-2.68654e-14 -2.40663e-13 0)
(2.81814e-14 -2.9521e-13 0)
(-1.56869e-14 -5.70472e-14 0)
(-7.89447e-14 -4.14539e-14 0)
(-1.00179e-13 1.63855e-14 0)
(-4.99055e-14 -4.03472e-14 0)
(-2.13652e-14 -1.78799e-13 0)
(-2.26515e-15 -1.04236e-13 0)
(3.86813e-14 7.61819e-14 0)
(-8.28267e-14 1.36011e-13 0)
(-5.15164e-14 1.95294e-13 0)
(-5.34529e-14 1.49606e-13 0)
(-6.12352e-14 5.01841e-14 0)
(1.18746e-14 -7.51043e-14 0)
(9.78827e-14 -1.57016e-13 0)
(1.26982e-13 -1.09245e-13 0)
(1.52356e-13 -1.51345e-13 0)
(1.4806e-13 -1.62945e-13 0)
(6.50063e-14 -1.32555e-13 0)
(-4.28066e-14 -6.80293e-14 0)
(-4.62753e-14 -3.09895e-14 0)
(1.20726e-15 1.00864e-13 0)
(-3.80804e-14 1.41776e-13 0)
(-9.13891e-15 7.03251e-14 0)
(-6.78962e-14 -2.88031e-15 0)
(-1.59542e-13 -5.81548e-14 0)
(-2.082e-13 -9.62785e-14 0)
(-1.01148e-13 -1.50425e-13 0)
(-1.04181e-13 -4.8946e-14 0)
(-1.56106e-13 -1.82346e-14 0)
(-1.21095e-14 -1.51971e-14 0)
(9.79092e-14 -3.41867e-14 0)
(2.12037e-14 -5.57741e-14 0)
(-2.25291e-14 -1.58375e-13 0)
(7.13532e-14 -2.31941e-13 0)
(6.48308e-14 -2.62668e-13 0)
(3.33266e-14 -3.27677e-13 0)
(4.41833e-14 -4.09292e-13 0)
(6.55219e-14 -3.40458e-13 0)
(1.41286e-13 -3.6549e-13 0)
(8.72921e-14 -2.19836e-13 0)
(4.00783e-14 -1.23479e-13 0)
(-1.02926e-14 -1.72324e-13 0)
(-1.05707e-13 -2.36528e-13 0)
(-6.28809e-14 -2.53234e-13 0)
(1.90506e-15 -2.47791e-13 0)
(6.97057e-14 -2.38801e-13 0)
(-2.00893e-14 -1.96681e-13 0)
(-1.52432e-13 -1.72224e-13 0)
(-7.78574e-14 -2.11576e-13 0)
(-4.38523e-14 -2.17418e-13 0)
(-5.78899e-14 -3.17016e-13 0)
(1.01974e-13 -3.43724e-13 0)
(2.39916e-13 -3.85751e-13 0)
(1.46302e-13 -3.53948e-13 0)
(2.99617e-14 -4.17542e-13 0)
(-4.37957e-14 -2.90678e-13 0)
(-5.00883e-14 -2.55582e-13 0)
(-1.1227e-13 -2.47757e-13 0)
(-1.792e-13 -2.73294e-13 0)
(8.63625e-15 -2.29052e-13 0)
(-3.26267e-15 -3.23994e-13 0)
(5.65928e-14 -3.61361e-13 0)
(9.24508e-14 -3.06493e-13 0)
(1.59585e-13 -3.35103e-13 0)
(9.50161e-14 -2.82859e-13 0)
(7.15346e-15 -3.06583e-13 0)
(-4.21478e-15 -2.16214e-13 0)
(-2.15287e-13 -2.26579e-13 0)
(-3.73698e-13 -1.71492e-13 0)
(-1.78818e-13 -1.47592e-13 0)
(-9.82547e-14 -1.63189e-13 0)
(-4.90472e-14 -1.89982e-13 0)
(1.93727e-14 -7.9796e-14 0)
(-1.72898e-14 -4.73323e-14 0)
(-5.8859e-14 -1.91294e-14 0)
(-8.47236e-14 -3.89061e-14 0)
(-7.08712e-14 -1.59816e-13 0)
(3.34202e-14 -2.56104e-13 0)
(1.24054e-13 -2.63489e-13 0)
(4.4161e-14 -1.91336e-13 0)
(-1.0015e-13 -1.13976e-13 0)
(-1.65877e-14 -1.26211e-13 0)
(7.49034e-14 -1.78939e-13 0)
(6.56156e-14 -3.07183e-13 0)
(3.15204e-14 -2.42595e-13 0)
(1.76781e-14 -2.77051e-13 0)
(1.01891e-13 -3.11549e-13 0)
(9.38348e-14 -3.06968e-13 0)
(1.31148e-13 -3.11287e-13 0)
(1.58625e-13 -2.3635e-13 0)
(5.73611e-14 -2.84514e-13 0)
(7.5996e-15 -3.02045e-13 0)
(-7.84928e-14 -2.9776e-13 0)
(-9.25672e-14 -2.52087e-13 0)
(-3.2318e-14 -2.32972e-13 0)
(-3.21798e-14 -2.47597e-13 0)
(-1.00261e-13 -3.09349e-13 0)
(-1.02417e-13 -3.50737e-13 0)
(-5.23947e-14 -3.64246e-13 0)
(-1.31025e-13 -3.73099e-13 0)
(-1.94268e-13 -3.56276e-13 0)
(-1.30901e-13 -2.97004e-13 0)
(5.08942e-15 -3.16179e-13 0)
(-9.61893e-15 -2.72356e-13 0)
(2.16894e-14 -2.70227e-13 0)
(6.6621e-14 -2.95743e-13 0)
(-2.17295e-14 -3.16647e-13 0)
(-8.40407e-14 -2.86426e-13 0)
(-3.74841e-14 -3.60261e-13 0)
(7.73431e-14 -3.06409e-13 0)
(3.57968e-14 -2.76134e-13 0)
(1.04416e-13 -3.17347e-13 0)
(1.56635e-13 -2.6884e-13 0)
(1.4991e-13 -3.04767e-13 0)
(1.48961e-13 -2.92105e-13 0)
(9.25036e-14 -2.72665e-13 0)
(-3.13904e-14 -2.7824e-13 0)
(-2.01845e-13 -2.88495e-13 0)
(-2.79278e-13 -2.35664e-13 0)
(-1.73978e-13 -2.29797e-13 0)
(-1.82964e-14 -1.85254e-13 0)
(1.57465e-15 -2.09567e-13 0)
(-2.23238e-14 -1.65589e-13 0)
(9.93228e-15 -1.64349e-13 0)
(-3.98253e-14 -2.21478e-13 0)
(-6.2834e-14 -2.33055e-13 0)
(-8.35016e-14 -2.00321e-13 0)
(-1.07007e-13 -3.05993e-13 0)
(-5.94503e-14 -2.44276e-13 0)
(-4.17209e-14 -2.95723e-13 0)
(-2.48776e-16 -3.06439e-13 0)
(5.54596e-14 -2.52537e-13 0)
(8.0526e-15 -2.20881e-13 0)
(8.81175e-15 -2.43455e-13 0)
(5.82731e-14 -2.00251e-13 0)
(3.78455e-15 -1.79824e-13 0)
(1.17645e-13 -2.42006e-13 0)
(1.36321e-13 -2.37417e-13 0)
(-8.64241e-15 -2.70588e-13 0)
(1.92017e-14 -2.28492e-13 0)
(1.39731e-13 -1.87795e-13 0)
(5.93098e-14 -1.22876e-13 0)
(-8.77154e-14 -1.3196e-13 0)
(-9.42503e-14 -4.01086e-14 0)
(-5.27432e-15 -9.65052e-15 0)
(1.9556e-13 -5.02721e-14 0)
(1.56495e-13 -5.161e-14 0)
(7.48587e-14 -9.23283e-14 0)
(7.42152e-16 -1.64909e-13 0)
(-6.68283e-14 -1.71296e-13 0)
(-2.20116e-15 -2.48805e-13 0)
(-4.64682e-14 -2.49585e-13 0)
(-5.00169e-14 -2.90896e-13 0)
(-8.78907e-14 -2.64384e-13 0)
(-1.04797e-13 -3.01926e-13 0)
(-8.18717e-14 -2.66325e-13 0)
(-5.63481e-14 -2.88975e-13 0)
(-9.65945e-14 -2.52312e-13 0)
(-1.59745e-14 -3.08923e-13 0)
(6.86302e-14 -3.11645e-13 0)
(1.87354e-14 -2.85696e-13 0)
(1.17803e-13 -2.85265e-13 0)
(8.21995e-14 -2.31421e-13 0)
(4.02823e-14 -2.80437e-13 0)
(1.32705e-13 -2.31679e-13 0)
(1.30294e-13 -1.99108e-13 0)
(1.81634e-14 -1.81162e-13 0)
(3.5128e-14 -2.18935e-13 0)
(-1.38127e-14 -1.6331e-13 0)
(-8.33711e-14 -2.15858e-13 0)
(-1.36402e-13 -1.70875e-13 0)
(-1.29998e-13 -2.20297e-13 0)
(1.4171e-14 -2.1492e-13 0)
(1.25606e-13 -1.61347e-13 0)
(1.02992e-13 -7.91299e-14 0)
(4.75433e-15 -5.09114e-14 0)
(-4.29587e-14 -1.33428e-14 0)
(-1.08538e-13 -5.24106e-14 0)
(-1.63415e-13 -6.71281e-14 0)
(-1.58798e-13 -1.72286e-13 0)
(6.05967e-14 -2.46346e-13 0)
(1.43098e-13 -2.9536e-13 0)
(1.15837e-13 -2.46418e-13 0)
(1.82414e-13 -2.39221e-13 0)
(1.24939e-13 -2.47073e-13 0)
(1.20949e-14 -2.58127e-13 0)
(6.20703e-15 -2.11984e-13 0)
(7.48009e-14 -1.75525e-13 0)
(1.69722e-14 -8.03907e-14 0)
(-1.24477e-14 -8.57495e-14 0)
(-9.7989e-14 -8.52197e-14 0)
(-1.57861e-13 -1.27125e-13 0)
(-1.53589e-13 -4.90621e-14 0)
(-4.42889e-14 -5.58228e-15 0)
(-3.11427e-14 -7.45634e-14 0)
(-8.86963e-14 -3.57667e-15 0)
(-8.2055e-14 2.15428e-14 0)
(1.31379e-14 -7.27031e-14 0)
(6.13811e-15 -1.58516e-13 0)
(-4.22986e-14 -1.90829e-13 0)
(-6.34541e-14 -2.86904e-13 0)
(-5.28234e-15 -3.73076e-13 0)
(-3.44815e-14 -3.96051e-13 0)
(2.37658e-14 -4.14841e-13 0)
(1.08476e-13 -3.63681e-13 0)
(2.05059e-13 -3.02555e-13 0)
(2.16974e-13 -2.86804e-13 0)
(8.0008e-14 -1.7283e-13 0)
(-8.85111e-14 -2.54767e-13 0)
(-1.2683e-13 -2.19654e-13 0)
(-1.17545e-13 -3.0997e-13 0)
(-2.48993e-14 -2.81916e-13 0)
(9.76541e-14 -3.78734e-13 0)
(-1.62342e-18 -3.08448e-13 0)
(-1.01818e-13 -2.50291e-13 0)
(-8.95296e-14 -2.1688e-13 0)
(-1.35363e-13 -2.3343e-13 0)
(-1.49523e-13 -2.81285e-13 0)
(8.9296e-14 -3.61201e-13 0)
(1.9323e-13 -3.66655e-13 0)
(9.89727e-14 -4.31161e-13 0)
(9.65198e-14 -3.33148e-13 0)
(5.76443e-14 -3.19879e-13 0)
(-4.21665e-14 -2.48685e-13 0)
(-1.41783e-13 -3.26921e-13 0)
(-1.14976e-13 -2.52228e-13 0)
(-2.72802e-14 -2.91908e-13 0)
(-1.84495e-15 -3.5445e-13 0)
(8.03994e-14 -2.7798e-13 0)
(6.53559e-14 -3.00291e-13 0)
(1.27731e-13 -2.30127e-13 0)
(1.00455e-13 -3.29612e-13 0)
(-6.78521e-16 -2.85128e-13 0)
(-1.50022e-14 -3.03998e-13 0)
(-1.90939e-13 -3.15988e-13 0)
(-3.36226e-13 -3.07327e-13 0)
(-1.83333e-13 -2.42513e-13 0)
(-9.28338e-14 -3.12434e-13 0)
(2.87136e-14 -1.63526e-13 0)
(1.07693e-13 -1.30623e-13 0)
(8.54341e-15 -1.05116e-13 0)
(-7.39923e-14 -1.56392e-13 0)
(-1.56371e-13 -1.66726e-13 0)
(-1.6558e-13 -2.88753e-13 0)
(-1.17606e-14 -2.68007e-13 0)
(1.19329e-13 -3.48328e-13 0)
(8.81213e-14 -2.99804e-13 0)
(1.42502e-14 -2.3508e-13 0)
(1.92555e-14 -1.53926e-13 0)
(-2.11289e-14 -1.7559e-13 0)
(-1.17742e-15 -2.23716e-13 0)
(8.23519e-14 -2.66015e-13 0)
(5.01667e-14 -2.90158e-13 0)
(7.69522e-14 -2.502e-13 0)
(6.43545e-14 -2.33805e-13 0)
(1.06428e-13 -1.9996e-13 0)
(1.42961e-13 -3.2346e-13 0)
(4.45147e-14 -3.02958e-13 0)
(-4.84756e-14 -3.22052e-13 0)
(-4.72245e-14 -3.84334e-13 0)
(-5.07136e-14 -3.72197e-13 0)
(-1.07556e-14 -2.75608e-13 0)
(-6.20763e-14 -3.00166e-13 0)
(-8.56654e-14 -2.69299e-13 0)
(-6.2724e-14 -2.09607e-13 0)
(-1.24359e-13 -2.95533e-13 0)
(-1.75462e-13 -4.02581e-13 0)
(-1.30647e-13 -3.72011e-13 0)
(-6.80987e-14 -3.35137e-13 0)
(6.69358e-15 -2.75838e-13 0)
(4.87082e-15 -3.17098e-13 0)
(2.97891e-14 -2.73212e-13 0)
(4.76694e-14 -3.27391e-13 0)
(-5.97158e-14 -2.83732e-13 0)
(-8.97623e-14 -3.61767e-13 0)
(5.11919e-16 -3.04228e-13 0)
(9.24926e-14 -3.36771e-13 0)
(2.32627e-14 -2.84037e-13 0)
(6.69783e-14 -2.31152e-13 0)
(1.23994e-13 -2.85149e-13 0)
(1.80586e-13 -2.43225e-13 0)
(1.99488e-13 -2.48036e-13 0)
(4.52588e-14 -2.6525e-13 0)
(-8.50901e-14 -3.14746e-13 0)
(-1.44052e-13 -2.49528e-13 0)
(-1.90289e-13 -2.70903e-13 0)
(-1.46128e-13 -1.80712e-13 0)
(-4.31769e-14 -2.47081e-13 0)
(1.26819e-14 -1.95391e-13 0)
(1.57085e-14 -1.43746e-13 0)
(-1.19191e-13 -2.71923e-13 0)
(-9.34858e-14 -3.99102e-13 0)
(-4.36548e-16 -3.19312e-13 0)
(-9.56672e-14 -2.82195e-13 0)
(-8.338e-14 -2.56037e-13 0)
(-3.30656e-14 -2.76686e-13 0)
(-6.58735e-14 -3.12735e-13 0)
(5.86061e-14 -2.77847e-13 0)
(7.36095e-14 -2.05692e-13 0)
(-2.72243e-14 -2.63312e-13 0)
(3.26228e-14 -2.34134e-13 0)
(1.05963e-13 -3.0181e-13 0)
(2.26544e-14 -2.70332e-13 0)
(5.96933e-14 -2.30199e-13 0)
(9.09152e-14 -2.62303e-13 0)
(2.50203e-14 -2.37931e-13 0)
(1.32325e-13 -2.00627e-13 0)
(1.61855e-13 -1.20736e-13 0)
(2.70346e-14 -1.57698e-13 0)
(-2.27409e-14 -1.30922e-13 0)
(-2.06117e-14 -1.47851e-13 0)
(3.32236e-14 -4.77402e-14 0)
(1.75554e-13 -1.23573e-13 0)
(1.13572e-13 -1.91361e-13 0)
(-1.72397e-14 -1.65502e-13 0)
(-1.01601e-13 -2.64466e-13 0)
(-1.23514e-13 -3.03331e-13 0)
(-4.82595e-14 -3.64866e-13 0)
(-1.03343e-14 -3.55889e-13 0)
(-4.13227e-14 -2.61376e-13 0)
(-5.86016e-14 -3.1986e-13 0)
(-5.37629e-14 -2.83764e-13 0)
(-3.00943e-14 -2.6698e-13 0)
(-1.06881e-13 -2.03194e-13 0)
(-1.63539e-13 -2.34158e-13 0)
(-4.87055e-14 -1.8841e-13 0)
(8.09056e-14 -3.16054e-13 0)
(5.00006e-14 -3.09032e-13 0)
(9.15883e-14 -2.54688e-13 0)
(7.5471e-14 -2.87823e-13 0)
(6.18928e-14 -2.17256e-13 0)
(1.88522e-13 -2.05384e-13 0)
(1.2214e-13 -1.57279e-13 0)
(-2.74348e-14 -1.13119e-13 0)
(-9.7702e-15 -1.61307e-13 0)
(6.24178e-15 -1.46655e-13 0)
(-9.82263e-14 -1.82456e-13 0)
(-1.16592e-13 -2.31311e-13 0)
(-5.78657e-14 -2.0148e-13 0)
(2.16918e-14 -1.68148e-13 0)
(1.39849e-13 -2.23973e-13 0)
(1.46006e-13 -1.94817e-13 0)
(-8.71233e-15 -1.20891e-13 0)
(-8.78021e-14 -1.00258e-13 0)
(-8.57957e-14 -1.57491e-13 0)
(-1.53668e-13 -2.37757e-13 0)
(-1.74663e-13 -2.63915e-13 0)
(-2.45905e-14 -2.19439e-13 0)
(1.10155e-13 -2.89678e-13 0)
(1.73224e-13 -1.7333e-13 0)
(2.10567e-13 -7.8792e-14 0)
(9.43891e-14 -1.7124e-13 0)
(-1.9488e-15 -2.57681e-13 0)
(5.27791e-14 -3.13006e-13 0)
(1.1444e-13 -3.27834e-13 0)
(7.1611e-14 -2.3959e-13 0)
(-4.9764e-14 -1.86035e-13 0)
(-1.70403e-13 -1.52184e-13 0)
(-1.22827e-13 -1.23499e-13 0)
(-6.90409e-14 -6.0026e-14 0)
(-1.30464e-13 -9.4558e-14 0)
(-5.95089e-14 -1.29108e-13 0)
(-3.4869e-14 -1.75267e-13 0)
(-9.58706e-14 -7.31005e-14 0)
(-1.01904e-13 -1.11437e-13 0)
(-6.50509e-14 -1.43318e-13 0)
(-1.15836e-13 -1.48696e-13 0)
(-5.97071e-14 -1.78868e-13 0)
(-2.87191e-14 -2.1948e-13 0)
(1.8219e-14 -2.36987e-13 0)
(8.66377e-14 -1.95527e-13 0)
(1.6457e-13 -2.07226e-13 0)
(2.2961e-13 -2.00201e-13 0)
(1.91906e-13 -2.62834e-13 0)
(7.41243e-14 -2.75381e-13 0)
(-3.71247e-14 -3.26095e-13 0)
(-1.1837e-13 -2.6718e-13 0)
(-1.53581e-13 -2.97682e-13 0)
(-8.35906e-14 -3.20983e-13 0)
(3.71411e-14 -3.21274e-13 0)
(7.23954e-14 -2.83631e-13 0)
(-3.1563e-14 -3.11392e-13 0)
(-9.33195e-14 -3.49296e-13 0)
(-1.09781e-13 -2.9941e-13 0)
(-1.38837e-13 -1.73815e-13 0)
(1.30194e-14 -2.40993e-13 0)
(1.28124e-13 -2.89648e-13 0)
(1.56336e-13 -2.66006e-13 0)
(1.30167e-13 -2.06565e-13 0)
(3.04365e-14 -2.77182e-13 0)
(-9.94242e-14 -3.20302e-13 0)
(-1.08211e-13 -3.80338e-13 0)
(-9.07366e-14 -3.78956e-13 0)
(-5.09647e-14 -3.64586e-13 0)
(5.40113e-14 -3.1088e-13 0)
(9.28005e-14 -3.08519e-13 0)
(8.84012e-14 -3.08233e-13 0)
(9.35956e-14 -3.18027e-13 0)
(8.95956e-14 -4.004e-13 0)
(8.29733e-16 -4.60958e-13 0)
(-7.92579e-14 -4.20582e-13 0)
(-2.50358e-13 -3.89493e-13 0)
(-2.52999e-13 -3.94108e-13 0)
(-1.26815e-13 -3.26058e-13 0)
(-3.33129e-14 -2.49575e-13 0)
(1.30222e-13 -1.67031e-13 0)
(1.2583e-13 -2.51402e-13 0)
(-4.21254e-15 -1.94137e-13 0)
(-1.19119e-13 -2.11063e-13 0)
(-1.832e-13 -2.78951e-13 0)
(-1.75768e-13 -2.52402e-13 0)
(-6.20713e-14 -2.34452e-13 0)
(5.70262e-14 -3.26749e-13 0)
(1.35731e-13 -3.02714e-13 0)
(8.86806e-14 -3.35885e-13 0)
(7.92497e-14 -2.85632e-13 0)
(2.33964e-14 -2.72493e-13 0)
(-1.37032e-14 -1.7747e-13 0)
(-6.21296e-14 -2.63193e-13 0)
(1.45143e-14 -3.04469e-13 0)
(1.12212e-13 -3.05663e-13 0)
(1.28449e-13 -2.91985e-13 0)
(7.37208e-14 -2.19573e-13 0)
(4.55616e-14 -2.6527e-13 0)
(5.50394e-14 -3.30209e-13 0)
(-2.64294e-14 -3.71614e-13 0)
(-7.52029e-14 -3.32835e-13 0)
(-3.97756e-15 -3.15697e-13 0)
(3.72446e-14 -2.60656e-13 0)
(-6.62362e-14 -2.98038e-13 0)
(-2.20939e-14 -3.43713e-13 0)
(-1.18114e-13 -2.83476e-13 0)
(-2.18409e-13 -2.81005e-13 0)
(-1.82565e-13 -3.04416e-13 0)
(-7.63473e-14 -2.51219e-13 0)
(9.35714e-15 -2.86027e-13 0)
(-5.27672e-15 -2.37008e-13 0)
(2.99465e-15 -2.2988e-13 0)
(1.7517e-14 -1.86751e-13 0)
(2.81661e-14 -2.93222e-13 0)
(-3.91712e-14 -3.14697e-13 0)
(-9.55674e-14 -2.97873e-13 0)
(1.16506e-14 -2.44817e-13 0)
(7.66097e-14 -2.37897e-13 0)
(1.05826e-13 -2.05885e-13 0)
(9.01654e-14 -1.63717e-13 0)
(1.04792e-13 -2.61735e-13 0)
(1.5968e-13 -2.56581e-13 0)
(1.13133e-13 -3.80007e-13 0)
(7.08205e-14 -3.02928e-13 0)
(-1.87392e-14 -3.18367e-13 0)
(-9.8308e-14 -2.66852e-13 0)
(-1.1853e-13 -2.55454e-13 0)
(-1.25029e-13 -2.11774e-13 0)
(-3.48847e-15 -1.68193e-13 0)
(8.30079e-14 -7.56237e-14 0)
(-1.15387e-13 -1.23162e-13 0)
(-1.99311e-13 -1.7174e-13 0)
(-8.43437e-14 -2.33263e-13 0)
(4.47368e-14 -2.18429e-13 0)
(-6.54813e-15 -2.7851e-13 0)
(-1.13529e-13 -2.30357e-13 0)
(-9.62191e-14 -2.38061e-13 0)
(-2.44669e-14 -1.78017e-13 0)
(9.98317e-14 -2.19721e-13 0)
(7.97346e-14 -2.70373e-13 0)
(-5.67004e-14 -2.53166e-13 0)
(-4.83292e-14 -2.74225e-13 0)
(4.96524e-14 -3.66521e-13 0)
(8.19605e-14 -3.77291e-13 0)
(1.19716e-13 -3.20674e-13 0)
(1.46613e-13 -3.21688e-13 0)
(4.81878e-14 -2.51798e-13 0)
(9.92929e-14 -2.94348e-13 0)
(1.96552e-13 -2.38698e-13 0)
(8.03337e-14 -2.27904e-13 0)
(6.59425e-15 -2.51382e-13 0)
(1.79023e-14 -2.14656e-13 0)
(-2.66768e-14 -1.80756e-13 0)
(3.80606e-14 -1.8776e-13 0)
(1.04073e-13 -2.43231e-13 0)
(-1.58228e-14 -3.02126e-13 0)
(-1.10402e-13 -2.31952e-13 0)
(-1.22592e-13 -2.58376e-13 0)
(-9.54229e-14 -2.12266e-13 0)
(1.73511e-14 -2.76648e-13 0)
(-4.70802e-14 -2.32998e-13 0)
(-8.22736e-14 -2.79472e-13 0)
(-3.66759e-14 -3.14141e-13 0)
(-2.20539e-14 -3.70542e-13 0)
(-6.43056e-14 -3.33218e-13 0)
(-1.24637e-13 -3.35273e-13 0)
(-9.39678e-14 -2.82353e-13 0)
(1.77089e-14 -2.87898e-13 0)
(9.71568e-14 -2.91155e-13 0)
(1.03848e-13 -2.43825e-13 0)
(1.10439e-13 -2.56854e-13 0)
(1.27123e-13 -1.55258e-13 0)
(1.74605e-13 -2.31372e-13 0)
(2.12363e-13 -1.66177e-13 0)
(4.32778e-14 -1.51877e-13 0)
(-1.2688e-14 -1.13882e-13 0)
(1.0279e-13 -1.9459e-13 0)