/*--------------------------------*- C++ -*----------------------------------*\
  =========                 |
  \\      /  F ield         | OpenFOAM: The Open Source CFD Toolbox
   \\    /   O peration     | Website:  https://openfoam.org
    \\  /    A nd           | Version:  13
     \\/     M anipulation  |
\*---------------------------------------------------------------------------*/
FoamFile
{
    format      ascii;
    class       volScalarField;
    location    "0.0017";
    object      CH4;
}
// * * * * * * * * * * * * * * * * * * * * * * * * * * * * * * * * * * * * * //

dimensions      [];

internalField   nonuniform List<scalar> 
33334
(
6.63491e-30
6.73897e-30
7.19852e-30
8.40606e-30
1.09419e-29
1.57617e-29
2.47576e-29
4.21786e-29
7.80629e-29
1.57067e-28
3.41884e-28
8.00118e-28
1.9942e-27
5.22945e-27
1.42479e-26
3.98631e-26
1.13347e-25
3.24664e-25
9.30223e-25
2.6524e-24
7.50119e-24
2.10017e-23
5.81828e-23
1.59627e-22
4.3459e-22
1.17739e-21
3.18164e-21
8.57938e-21
2.30276e-20
6.1189e-20
1.59798e-19
4.0709e-19
1.00522e-18
2.39457e-18
5.48423e-18
1.20439e-17
2.53057e-17
5.0778e-17
9.72159e-17
1.77423e-16
3.08805e-16
5.13164e-16
8.15539e-16
1.24223e-15
1.81879e-15
2.5685e-15
3.51063e-15
4.65487e-15
5.98716e-15
7.44689e-15
8.91402e-15
1.02321e-14
1.12079e-14
1.16358e-14
1.16159e-14
1.14365e-14
1.10383e-14
1.04853e-14
9.90041e-15
9.38642e-15
9.00357e-15
8.78178e-15
8.71415e-15
8.80901e-15
9.15396e-15
9.77885e-15
1.07219e-14
1.21051e-14
1.41317e-14
1.712e-14
2.15952e-14
2.84545e-14
3.93566e-14
5.74711e-14
8.91199e-14
1.47652e-13
2.63334e-13
5.10535e-13
1.08624e-12
2.55363e-12
6.67776e-12
1.965e-11
6.57146e-11
2.53855e-10
1.16016e-09
6.3985e-09
4.36687e-08
3.80614e-07
4.49986e-06
8.00544e-05
0.00229505
0.0285054
0.0469615
0.0486691
0.0487101
0.0487444
0.0487803
0.0488156
0.04885
0.0488837
0.0489166
0.0489487
0.0489801
0.0490109
0.049041
0.0490705
0.0490995
0.0491278
0.0491556
0.0491829
0.0492097
0.0492359
0.0492617
0.049287
0.0493119
0.0493363
0.0493604
0.0493842
0.0494076
0.0494304
0.0494526
0.049474
0.0494945
0.0495146
0.0495355
0.0495588
0.0495872
0.049624
0.0496723
0.0497324
0.0498006
0.0498681
0.0499249
0.0499646
0.049987
0.0499966
0.0499995
0.05
0.05
0.05
0.05
0.05
0.05
0.05
0.05
0.05
0.05
0.05
0.05
0.05
0.05
0.05
0.05
0.05
0.05
0.05
0.05
0.05
0.05
0.05
0.05
0.05
0.05
0.05
0.05
0.05
6.73897e-30
6.84422e-30
7.31082e-30
8.5376e-30
1.11129e-29
1.60139e-29
2.51467e-29
4.27192e-29
7.86173e-29
1.57197e-28
3.40882e-28
7.96245e-28
1.9823e-27
5.19398e-27
1.41413e-26
3.95378e-26
1.12344e-25
3.21567e-25
9.20681e-25
2.62315e-24
7.41211e-24
2.07327e-23
5.73789e-23
1.57253e-22
4.27667e-22
1.1574e-21
3.12431e-21
8.41673e-21
2.25737e-20
5.99526e-20
1.56538e-19
3.98841e-19
9.85317e-19
2.34892e-18
5.38485e-18
1.18386e-17
2.49034e-17
5.0031e-17
9.59018e-17
1.75249e-16
3.05409e-16
5.08151e-16
8.08546e-16
1.23303e-15
1.80735e-15
2.55502e-15
3.49558e-15
4.6392e-15
5.97275e-15
7.43851e-15
8.92339e-15
1.02745e-14
1.12948e-14
1.17585e-14
1.17477e-14
1.1579e-14
1.11844e-14
1.06266e-14
1.00304e-14
9.50234e-15
9.10534e-15
8.87133e-15
8.79563e-15
8.88214e-15
9.2181e-15
9.84003e-15
1.07836e-14
1.21686e-14
1.41995e-14
1.71958e-14
2.16757e-14
2.85288e-14
3.93925e-14
5.73737e-14
8.86678e-14
1.46389e-13
2.60195e-13
5.02956e-13
1.06822e-12
2.51161e-12
6.58183e-12
1.94403e-11
6.57382e-11
2.56032e-10
1.1619e-09
6.28853e-09
4.21202e-08
3.62341e-07
4.23859e-06
7.46352e-05
0.00212768
0.0278194
0.0468179
0.0486686
0.0487107
0.0487449
0.0487808
0.048816
0.0488503
0.0488839
0.0489166
0.0489487
0.0489801
0.0490109
0.049041
0.0490705
0.0490994
0.0491278
0.0491556
0.0491828
0.0492096
0.0492358
0.0492616
0.0492869
0.0493118
0.0493362
0.0493603
0.0493841
0.0494075
0.0494303
0.0494525
0.0494739
0.0494944
0.0495146
0.0495354
0.0495587
0.0495871
0.0496239
0.0496721
0.0497322
0.0498004
0.0498679
0.0499248
0.0499646
0.049987
0.0499966
0.0499995
0.05
0.05
0.05
0.05
0.05
0.05
0.05
0.05
0.05
0.05
0.05
0.05
0.05
0.05
0.05
0.05
0.05
0.05
0.05
0.05
0.05
0.05
0.05
0.05
0.05
0.05
0.05
0.05
0.05
7.19852e-30
7.31082e-30
7.80781e-30
9.11723e-30
1.18739e-29
1.71392e-29
2.69578e-29
4.57198e-29
8.3642e-29
1.65852e-28
3.57281e-28
8.30692e-28
2.0608e-27
5.38375e-27
1.46189e-26
4.07691e-26
1.15551e-25
3.29904e-25
9.42117e-25
2.67718e-24
7.54471e-24
2.10481e-23
5.81041e-23
1.58865e-22
4.31141e-22
1.16469e-21
3.13943e-21
8.44852e-21
2.26451e-20
6.01336e-20
1.5706e-19
4.00458e-19
9.90329e-19
2.3637e-18
5.42552e-18
1.19427e-17
2.51529e-17
5.05943e-17
9.71059e-17
1.77705e-16
3.10173e-16
5.16932e-16
8.23935e-16
1.25871e-15
1.84824e-15
2.61725e-15
3.58622e-15
4.76572e-15
6.14284e-15
7.66213e-15
9.21728e-15
1.06528e-14
1.17494e-14
1.22516e-14
1.22405e-14
1.20587e-14
1.16352e-14
1.10366e-14
1.03938e-14
9.81872e-15
9.37883e-15
9.10855e-15
9.00539e-15
9.06764e-15
9.37482e-15
9.97863e-15
1.09082e-14
1.22774e-14
1.42889e-14
1.72565e-14
2.169e-14
2.84862e-14
3.92508e-14
5.70126e-14
8.78352e-14
1.4454e-13
2.56067e-13
4.9328e-13
1.04362e-12
2.44305e-12
6.36177e-12
1.86161e-11
6.23154e-11
2.41796e-10
1.10082e-09
6.03073e-09
4.13594e-08
3.69295e-07
4.51256e-06
8.20727e-05
0.00233776
0.028566
0.0469688
0.0486706
0.0487116
0.0487457
0.0487815
0.0488166
0.0488509
0.0488843
0.0489171
0.0489492
0.0489806
0.0490113
0.0490414
0.0490709
0.0490998
0.0491282
0.049156
0.0491832
0.04921
0.0492362
0.049262
0.0492873
0.0493121
0.0493366
0.0493607
0.0493844
0.0494078
0.0494306
0.0494528
0.0494742
0.0494947
0.0495148
0.0495356
0.0495589
0.0495873
0.0496241
0.0496723
0.0497325
0.0498006
0.0498681
0.0499249
0.0499646
0.049987
0.0499966
0.0499995
0.05
0.05
0.05
0.05
0.05
0.05
0.05
0.05
0.05
0.05
0.05
0.05
0.05
0.05
0.05
0.05
0.05
0.05
0.05
0.05
0.05
0.05
0.05
0.05
0.05
0.05
0.05
0.05
0.05
8.40606e-30
8.5376e-30
9.11723e-30
1.06368e-29
1.38455e-29
1.99977e-29
3.15086e-29
5.34874e-29
9.76941e-29
1.92782e-28
4.1208e-28
9.49933e-28
2.33735e-27
6.0599e-27
1.63388e-26
4.52602e-26
1.27446e-25
3.61545e-25
1.02597e-24
2.89739e-24
8.11601e-24
2.25119e-23
6.18162e-23
1.68228e-22
4.54786e-22
1.2249e-21
3.29493e-21
8.85684e-21
2.37328e-20
6.30519e-20
1.64863e-19
4.21002e-19
1.04297e-18
2.49388e-18
5.73464e-18
1.26459e-17
2.66846e-17
5.37925e-17
1.03513e-16
1.90036e-16
3.32917e-16
5.57082e-16
8.91727e-16
1.36823e-15
2.01773e-15
2.8689e-15
3.94528e-15
5.25863e-15
6.79467e-15
8.49319e-15
1.02349e-14
1.18359e-14
1.30314e-14
1.35517e-14
1.35125e-14
1.32571e-14
1.27313e-14
1.20206e-14
1.12662e-14
1.05887e-14
1.00613e-14
9.72077e-15
9.56902e-15
9.59641e-15
9.86411e-15
1.04525e-14
1.13822e-14
1.27604e-14
1.47918e-14
1.77972e-14
2.23031e-14
2.92387e-14
4.02441e-14
5.84192e-14
8.99387e-14
1.47866e-13
2.6175e-13
5.03742e-13
1.06428e-12
2.49107e-12
6.51068e-12
1.91972e-11
6.47874e-11
2.54084e-10
1.1756e-09
6.54634e-09
4.52962e-08
4.07601e-07
5.03466e-06
9.24333e-05
0.00262667
0.0297089
0.0471893
0.0486734
0.0487128
0.048747
0.0487827
0.0488178
0.048852
0.0488855
0.0489182
0.0489503
0.0489817
0.0490124
0.0490425
0.0490719
0.0491008
0.0491291
0.0491569
0.0491841
0.0492109
0.0492371
0.0492628
0.0492881
0.0493129
0.0493374
0.0493614
0.0493851
0.0494085
0.0494313
0.0494535
0.0494748
0.0494953
0.0495154
0.0495362
0.0495595
0.0495879
0.0496247
0.0496729
0.049733
0.0498011
0.0498685
0.0499251
0.0499648
0.0499871
0.0499966
0.0499995
0.05
0.05
0.05
0.05
0.05
0.05
0.05
0.05
0.05
0.05
0.05
0.05
0.05
0.05
0.05
0.05
0.05
0.05
0.05
0.05
0.05
0.05
0.05
0.05
0.05
0.05
0.05
0.05
0.05
1.09419e-29
1.11129e-29
1.18739e-29
1.38455e-29
1.79909e-29
2.5929e-29
4.07919e-29
6.91979e-29
1.26238e-28
2.48302e-28
5.27329e-28
1.20468e-27
2.93408e-27
7.52828e-27
2.00929e-26
5.51173e-26
1.53743e-25
4.3218e-25
1.21564e-24
3.4041e-24
9.4596e-24
2.60472e-23
7.10631e-23
1.9235e-22
5.17822e-22
1.39064e-21
3.73445e-21
1.0032e-20
2.68874e-20
7.14898e-20
1.87142e-19
4.78519e-19
1.18705e-18
2.8423e-18
6.54576e-18
1.44613e-17
3.05871e-17
6.18494e-17
1.19483e-16
2.20434e-16
3.88377e-16
6.53949e-16
1.05361e-15
1.62715e-15
2.41448e-15
3.45251e-15
4.77091e-15
6.38325e-15
8.26903e-15
1.03489e-14
1.24659e-14
1.43719e-14
1.57156e-14
1.62358e-14
1.61348e-14
1.5728e-14
1.49928e-14
1.4057e-14
1.30886e-14
1.22225e-14
1.15406e-14
1.10825e-14
1.08563e-14
1.08415e-14
1.10747e-14
1.16763e-14
1.26644e-14
1.41424e-14
1.63314e-14
1.95852e-14
2.44829e-14
3.20255e-14
4.40037e-14
6.37989e-14
9.81125e-14
1.61159e-13
2.85265e-13
5.49432e-13
1.16251e-12
2.72984e-12
7.18089e-12
2.13645e-11
7.26971e-11
2.87649e-10
1.34467e-09
7.58055e-09
5.28664e-08
4.77732e-07
5.95047e-06
0.000111026
0.00312505
0.0312393
0.0474618
0.0486765
0.0487144
0.0487487
0.0487845
0.0488195
0.0488537
0.0488872
0.0489199
0.0489519
0.0489833
0.0490139
0.049044
0.0490734
0.0491023
0.0491305
0.0491583
0.0491855
0.0492122
0.0492384
0.0492641
0.0492893
0.0493141
0.0493385
0.0493625
0.0493862
0.0494095
0.0494323
0.0494545
0.0494757
0.0494962
0.0495163
0.0495371
0.0495603
0.0495887
0.0496255
0.0496737
0.0497338
0.0498017
0.049869
0.0499255
0.049965
0.0499872
0.0499967
0.0499995
0.05
0.05
0.05
0.05
0.05
0.05
0.05
0.05
0.05
0.05
0.05
0.05
0.05
0.05
0.05
0.05
0.05
0.05
0.05
0.05
0.05
0.05
0.05
0.05
0.05
0.05
0.05
0.05
0.05
1.57617e-29
1.60139e-29
1.71392e-29
1.99977e-29
2.5929e-29
3.7197e-29
5.81947e-29
9.82259e-29
1.78344e-28
3.48926e-28
7.35944e-28
1.66666e-27
4.01843e-27
1.01998e-26
2.69273e-26
7.30771e-26
2.01741e-25
5.6153e-25
1.56478e-24
4.34359e-24
1.19731e-23
3.27281e-23
8.87207e-23
2.38852e-22
6.40247e-22
1.7139e-21
4.59235e-21
1.23195e-20
3.2993e-20
8.76978e-20
2.29582e-19
5.8723e-19
1.45769e-18
3.49423e-18
8.06113e-18
1.7854e-17
3.78891e-17
7.69386e-17
1.49392e-16
2.77256e-16
4.91724e-16
8.33737e-16
1.35267e-15
2.10296e-15
3.13944e-15
4.51251e-15
6.26136e-15
8.40102e-15
1.08973e-14
1.36353e-14
1.63952e-14
1.88184e-14
2.04073e-14
2.0925e-14
2.07301e-14
2.00886e-14
1.90117e-14
1.76967e-14
1.63663e-14
1.51848e-14
1.42479e-14
1.36005e-14
1.32546e-14
1.3178e-14
1.3387e-14
1.40356e-14
1.51631e-14
1.68715e-14
1.94151e-14
2.32094e-14
2.89279e-14
3.7727e-14
5.16965e-14
7.47833e-14
1.14802e-13
1.88361e-13
3.33375e-13
6.42662e-13
1.36189e-12
3.20321e-12
8.4397e-12
2.51613e-11
8.58042e-11
3.40126e-10
1.59162e-09
9.01544e-09
6.33156e-08
5.75933e-07
7.2076e-06
0.000137219
0.00386084
0.0330323
0.0477414
0.0486799
0.0487166
0.048751
0.0487868
0.0488218
0.0488559
0.0488893
0.048922
0.048954
0.0489852
0.0490159
0.0490459
0.0490752
0.049104
0.0491323
0.04916
0.0491871
0.0492138
0.0492399
0.0492656
0.0492908
0.0493155
0.0493399
0.0493639
0.0493875
0.0494108
0.0494336
0.0494556
0.0494769
0.0494973
0.0495174
0.0495381
0.0495613
0.0495897
0.0496266
0.0496747
0.0497347
0.0498026
0.0498696
0.0499259
0.0499652
0.0499873
0.0499967
0.0499995
0.05
0.05
0.05
0.05
0.05
0.05
0.05
0.05
0.05
0.05
0.05
0.05
0.05
0.05
0.05
0.05
0.05
0.05
0.05
0.05
0.05
0.05
0.05
0.05
0.05
0.05
0.05
0.05
0.05
2.47576e-29
2.51467e-29
2.69578e-29
3.15086e-29
4.07919e-29
5.81947e-29
9.03068e-29
1.51095e-28
2.71945e-28
5.27386e-28
1.10199e-27
2.47038e-27
5.8913e-27
1.47828e-26
3.85751e-26
1.03497e-25
2.82602e-25
7.78526e-25
2.14881e-24
5.91263e-24
1.61683e-23
4.38779e-23
1.1818e-22
3.16346e-22
8.43743e-22
2.24905e-21
6.00502e-21
1.60636e-20
4.29282e-20
1.1394e-19
2.98056e-19
7.62363e-19
1.89392e-18
4.54751e-18
1.05182e-17
2.33774e-17
4.98232e-17
1.01672e-16
1.98496e-16
3.70552e-16
6.61209e-16
1.12794e-15
1.84064e-15
2.87664e-15
4.31354e-15
6.22143e-15
8.65228e-15
1.16207e-14
1.50689e-14
1.88278e-14
2.25859e-14
2.58178e-14
2.77948e-14
2.83146e-14
2.79897e-14
2.70141e-14
2.54289e-14
2.35294e-14
2.16305e-14
1.99504e-14
1.8608e-14
1.76578e-14
1.71139e-14
1.69336e-14
1.71099e-14
1.78231e-14
1.91645e-14
2.12369e-14
2.43396e-14
2.89792e-14
3.59735e-14
4.67249e-14
6.37762e-14
9.19288e-14
1.40698e-13
2.30312e-13
4.06925e-13
7.83506e-13
1.6592e-12
3.89958e-12
1.02638e-11
3.05795e-11
1.04343e-10
4.14428e-10
1.94467e-09
1.10695e-08
7.83364e-08
7.21932e-07
9.17134e-06
0.000177812
0.0049204
0.0349959
0.0480027
0.0486835
0.0487191
0.0487538
0.0487895
0.0488244
0.0488585
0.0488918
0.0489244
0.0489563
0.0489875
0.0490181
0.049048
0.0490773
0.0491061
0.0491343
0.0491619
0.049189
0.0492156
0.0492417
0.0492673
0.0492925
0.0493172
0.0493415
0.0493654
0.049389
0.0494123
0.049435
0.049457
0.0494782
0.0494986
0.0495186
0.0495393
0.0495626
0.049591
0.0496278
0.0496759
0.0497359
0.0498037
0.0498705
0.0499265
0.0499655
0.0499874
0.0499967
0.0499995
0.05
0.05
0.05
0.05
0.05
0.05
0.05
0.05
0.05
0.05
0.05
0.05
0.05
0.05
0.05
0.05
0.05
0.05
0.05
0.05
0.05
0.05
0.05
0.05
0.05
0.05
0.05
0.05
0.05
4.21786e-29
4.27192e-29
4.57198e-29
5.34874e-29
6.91979e-29
9.82259e-29
1.51095e-28
2.50099e-28
4.44963e-28
8.52606e-28
1.75944e-27
3.8936e-27
9.16318e-27
2.26867e-26
5.84171e-26
1.54715e-25
4.17265e-25
1.1363e-24
3.10314e-24
8.45613e-24
2.29208e-23
6.17064e-23
1.6499e-22
4.38704e-22
1.16298e-21
3.0831e-21
8.19287e-21
2.18297e-20
5.81604e-20
1.54056e-19
4.02607e-19
1.02992e-18
2.56171e-18
6.16472e-18
1.43036e-17
3.19155e-17
6.8325e-17
1.40105e-16
2.74911e-16
5.15817e-16
9.24989e-16
1.58527e-15
2.59767e-15
4.07383e-15
6.12452e-15
8.84735e-15
1.23103e-14
1.65235e-14
2.13904e-14
2.66622e-14
3.19004e-14
3.63382e-14
3.88842e-14
3.93894e-14
3.8883e-14
3.74324e-14
3.51067e-14
3.23359e-14
2.95761e-14
2.71333e-14
2.51661e-14
2.37427e-14
2.2877e-14
2.25207e-14
2.26372e-14
2.34102e-14
2.50333e-14
2.76113e-14
3.14981e-14
3.73263e-14
4.61201e-14
5.96313e-14
8.10361e-14
1.16327e-13
1.77401e-13
2.89543e-13
5.10329e-13
9.80619e-13
2.07377e-12
4.8693e-12
1.28118e-11
3.81768e-11
1.30444e-10
5.19194e-10
2.44848e-09
1.4037e-08
1.00038e-07
9.32259e-07
1.20273e-05
0.000241323
0.00649462
0.0370853
0.0482264
0.0486871
0.0487219
0.0487568
0.0487924
0.0488273
0.0488613
0.0488945
0.048927
0.0489589
0.04899
0.0490205
0.0490504
0.0490797
0.0491083
0.0491365
0.049164
0.0491911
0.0492176
0.0492437
0.0492693
0.0492944
0.049319
0.0493433
0.0493672
0.0493907
0.0494139
0.0494366
0.0494586
0.0494797
0.0495
0.04952
0.0495407
0.0495639
0.0495923
0.0496292
0.0496774
0.0497373
0.0498049
0.0498715
0.0499272
0.0499659
0.0499876
0.0499968
0.0499995
0.05
0.05
0.05
0.05
0.05
0.05
0.05
0.05
0.05
0.05
0.05
0.05
0.05
0.05
0.05
0.05
0.05
0.05
0.05
0.05
0.05
0.05
0.05
0.05
0.05
0.05
0.05
0.05
0.05
7.80629e-29
7.86173e-29
8.3642e-29
9.76941e-29
1.26238e-28
1.78344e-28
2.71945e-28
4.44963e-28
7.81248e-28
1.47548e-27
2.99838e-27
6.53045e-27
1.5122e-26
3.68407e-26
9.33731e-26
2.43544e-25
6.47373e-25
1.73917e-24
4.69027e-24
1.26349e-23
3.38895e-23
9.03641e-23
2.39502e-22
6.31729e-22
1.66245e-21
4.37846e-21
1.15692e-20
3.06816e-20
8.14537e-20
2.15252e-19
5.61949e-19
1.43782e-18
3.58114e-18
8.63827e-18
2.01056e-17
4.50282e-17
9.67896e-17
1.99316e-16
3.92748e-16
7.39891e-16
1.3317e-15
2.28954e-15
3.76129e-15
5.90937e-15
8.89263e-15
1.28468e-14
1.78593e-14
2.39282e-14
3.08941e-14
3.83891e-14
4.57972e-14
5.20048e-14
5.53532e-14
5.57826e-14
5.50117e-14
5.28638e-14
4.94466e-14
4.53833e-14
4.13356e-14
3.77446e-14
3.48315e-14
3.26849e-14
3.1313e-14
3.06725e-14
3.06874e-14
3.15039e-14
3.34944e-14
3.67697e-14
4.1751e-14
4.92453e-14
6.05718e-14
7.79769e-14
1.05528e-13
1.50894e-13
2.29334e-13
3.73242e-13
6.56301e-13
1.2589e-12
2.6598e-12
6.24312e-12
1.64351e-11
4.90283e-11
1.67977e-10
6.70944e-10
3.18397e-09
1.83735e-08
1.32314e-07
1.25367e-06
1.64733e-05
0.000340091
0.00876249
0.0392361
0.0483981
0.0486906
0.048725
0.0487601
0.0487957
0.0488304
0.0488643
0.0488975
0.0489299
0.0489617
0.0489927
0.0490232
0.049053
0.0490822
0.0491108
0.0491389
0.0491664
0.0491934
0.0492199
0.0492459
0.0492714
0.0492964
0.049321
0.0493452
0.0493691
0.0493926
0.0494157
0.0494383
0.0494603
0.0494813
0.0495016
0.0495216
0.0495422
0.0495654
0.0495939
0.0496308
0.049679
0.0497389
0.0498063
0.0498726
0.0499279
0.0499664
0.0499878
0.0499968
0.0499995
0.05
0.05
0.05
0.05
0.05
0.05
0.05
0.05
0.05
0.05
0.05
0.05
0.05
0.05
0.05
0.05
0.05
0.05
0.05
0.05
0.05
0.05
0.05
0.05
0.05
0.05
0.05
0.05
0.05
1.57067e-28
1.57197e-28
1.65852e-28
1.92782e-28
2.48302e-28
3.48926e-28
5.27386e-28
8.52606e-28
1.47548e-27
2.74127e-27
5.4719e-27
1.16956e-26
2.65671e-26
6.34958e-26
1.57947e-25
4.04623e-25
1.05733e-24
2.79542e-24
7.42757e-24
1.97363e-23
5.22742e-23
1.37785e-22
3.61356e-22
9.4405e-22
2.46305e-21
6.43798e-21
1.69008e-20
4.45827e-20
1.17877e-19
3.10647e-19
8.09853e-19
2.07187e-18
5.16564e-18
1.24849e-17
2.91355e-17
6.54536e-17
1.41161e-16
2.91658e-16
5.76531e-16
1.0892e-15
1.96502e-15
3.38434e-15
5.56586e-15
8.7477e-15
1.31587e-14
1.89876e-14
2.63452e-14
3.52041e-14
4.5303e-14
5.60914e-14
6.66897e-14
7.54835e-14
7.99784e-14
8.02516e-14
7.90643e-14
7.58411e-14
7.07844e-14
6.47959e-14
5.88225e-14
5.35061e-14
4.9168e-14
4.59252e-14
4.37788e-14
4.26863e-14
4.25225e-14
4.33951e-14
4.58752e-14
5.0143e-14
5.66968e-14
6.65907e-14
8.15729e-14
1.04609e-13
1.41054e-13
2.01006e-13
3.04585e-13
4.94441e-13
8.67674e-13
1.66246e-12
3.51077e-12
8.23934e-12
2.17099e-11
6.48739e-11
2.229e-10
8.93438e-10
4.27333e-09
2.48457e-08
1.8108e-07
1.73656e-06
2.34344e-05
0.000502552
0.0119701
0.0413463
0.0485193
0.0486943
0.0487283
0.0487636
0.0487991
0.0488337
0.0488676
0.0489006
0.048933
0.0489647
0.0489957
0.049026
0.0490557
0.0490849
0.0491134
0.0491414
0.0491689
0.0491958
0.0492222
0.0492482
0.0492736
0.0492986
0.0493232
0.0493473
0.0493711
0.0493946
0.0494176
0.0494402
0.0494621
0.0494831
0.0495033
0.0495232
0.0495439
0.0495671
0.0495955
0.0496325
0.0496808
0.0497406
0.0498079
0.0498739
0.0499288
0.0499669
0.049988
0.0499969
0.0499995
0.05
0.05
0.05
0.05
0.05
0.05
0.05
0.05
0.05
0.05
0.05
0.05
0.05
0.05
0.05
0.05
0.05
0.05
0.05
0.05
0.05
0.05
0.05
0.05
0.05
0.05
0.05
0.05
0.05
3.41884e-28
3.40882e-28
3.57281e-28
4.1208e-28
5.27329e-28
7.35944e-28
1.10199e-27
1.75944e-27
2.99838e-27
5.4719e-27
1.07076e-26
2.24049e-26
4.97887e-26
1.16403e-25
2.83366e-25
7.10973e-25
1.82153e-24
4.72742e-24
1.23461e-23
3.22863e-23
8.4265e-23
2.19122e-22
5.67613e-22
1.46643e-21
3.78803e-21
9.81549e-21
2.55773e-20
6.70604e-20
1.76464e-19
4.63445e-19
1.20565e-18
3.08179e-18
7.68561e-18
1.85973e-17
4.34785e-17
9.78897e-17
2.11605e-16
4.38182e-16
8.6785e-16
1.64204e-15
2.96528e-15
5.109e-15
8.39987e-15
1.31896e-14
1.98093e-14
2.85221e-14
3.94655e-14
5.2563e-14
6.73907e-14
8.31121e-14
9.8429e-14
1.10991e-13
1.17186e-13
1.17277e-13
1.15377e-13
1.10446e-13
1.029e-13
9.4025e-14
8.51578e-14
7.72386e-14
7.0746e-14
6.58388e-14
6.25094e-14
6.07086e-14
6.02522e-14
6.12089e-14
6.43822e-14
7.01022e-14
7.89783e-14
9.24184e-14
1.12805e-13
1.44175e-13
1.93787e-13
2.75323e-13
4.16076e-13
6.73842e-13
1.18064e-12
2.26033e-12
4.771e-12
1.11991e-11
2.95421e-11
8.84112e-11
3.04602e-10
1.23013e-09
5.92136e-09
3.46276e-08
2.56227e-07
2.50714e-06
3.49608e-05
0.000770923
0.0161534
0.0433309
0.0485951
0.048698
0.0487319
0.0487673
0.0488027
0.0488373
0.048871
0.048904
0.0489362
0.0489678
0.0489987
0.049029
0.0490587
0.0490877
0.0491162
0.0491441
0.0491715
0.0491984
0.0492248
0.0492506
0.049276
0.049301
0.0493254
0.0493495
0.0493733
0.0493967
0.0494197
0.0494422
0.049464
0.049485
0.0495052
0.049525
0.0495456
0.0495689
0.0495974
0.0496344
0.0496827
0.0497426
0.0498096
0.0498752
0.0499298
0.0499674
0.0499882
0.049997
0.0499995
0.05
0.05
0.05
0.05
0.05
0.05
0.05
0.05
0.05
0.05
0.05
0.05
0.05
0.05
0.05
0.05
0.05
0.05
0.05
0.05
0.05
0.05
0.05
0.05
0.05
0.05
0.05
0.05
0.05
8.00118e-28
7.96245e-28
8.30692e-28
9.49933e-28
1.20468e-27
1.66666e-27
2.47038e-27
3.8936e-27
6.53045e-27
1.16956e-26
2.24049e-26
4.58117e-26
9.93766e-26
2.26724e-25
5.38747e-25
1.32049e-24
3.30858e-24
8.40872e-24
2.15355e-23
5.53081e-23
1.41961e-22
3.63525e-22
9.28541e-22
2.36862e-21
6.04966e-21
1.55217e-20
4.01077e-20
1.04426e-19
2.73251e-19
7.14551e-19
1.85325e-18
4.7283e-18
1.17821e-17
2.85118e-17
6.67028e-17
1.50333e-16
3.25333e-16
6.74323e-16
1.33629e-15
2.52853e-15
4.56407e-15
7.85577e-15
1.28959e-14
2.02069e-14
3.02699e-14
4.34518e-14
5.99174e-14
7.95021e-14
1.01521e-13
1.24688e-13
1.47047e-13
1.6514e-13
1.7388e-13
1.73793e-13
1.70685e-13
1.63095e-13
1.51761e-13
1.38524e-13
1.25282e-13
1.13419e-13
1.03655e-13
9.62113e-14
9.10721e-14
8.81714e-14
8.72522e-14
8.83449e-14
9.25412e-14
1.00435e-13
1.12808e-13
1.31585e-13
1.60103e-13
2.04017e-13
2.73433e-13
3.87412e-13
5.8402e-13
9.43863e-13
1.65197e-12
3.16096e-12
6.66997e-12
1.56677e-11
4.13739e-11
1.24035e-10
4.29607e-10
1.74541e-09
8.42686e-09
4.99567e-08
3.75902e-07
3.76102e-06
5.39716e-05
0.0012377
0.021159
0.0450879
0.048638
0.0487017
0.0487356
0.0487712
0.0488065
0.0488409
0.0488746
0.0489075
0.0489396
0.0489711
0.049002
0.0490322
0.0490617
0.0490907
0.0491191
0.049147
0.0491743
0.0492011
0.0492274
0.0492532
0.0492786
0.0493034
0.0493279
0.0493519
0.0493756
0.0493989
0.0494219
0.0494444
0.0494661
0.049487
0.0495072
0.049527
0.0495475
0.0495708
0.0495993
0.0496365
0.0496848
0.0497446
0.0498115
0.0498768
0.0499308
0.049968
0.0499885
0.0499971
0.0499995
0.05
0.05
0.05
0.05
0.05
0.05
0.05
0.05
0.05
0.05
0.05
0.05
0.05
0.05
0.05
0.05
0.05
0.05
0.05
0.05
0.05
0.05
0.05
0.05
0.05
0.05
0.05
0.05
0.05
1.9942e-27
1.9823e-27
2.0608e-27
2.33735e-27
2.93408e-27
4.01843e-27
5.8913e-27
9.16318e-27
1.5122e-26
2.65671e-26
4.97887e-26
9.93766e-26
2.10135e-25
4.67024e-25
1.08114e-24
2.58321e-24
6.31614e-24
1.5686e-23
3.93159e-23
9.89724e-23
2.49388e-22
6.27861e-22
1.57899e-21
3.9715e-21
1.00165e-20
2.54164e-20
6.5054e-20
1.68031e-19
4.3681e-19
1.13623e-18
2.93486e-18
7.46529e-18
1.85638e-17
4.48668e-17
1.04895e-16
2.36334e-16
5.11316e-16
1.05934e-15
2.09745e-15
3.96335e-15
7.14071e-15
1.22626e-14
2.00752e-14
3.13582e-14
4.68116e-14
6.69447e-14
9.19446e-14
1.21492e-13
1.54483e-13
1.88933e-13
2.21871e-13
2.48189e-13
2.60704e-13
2.60364e-13
2.55358e-13
2.43722e-13
2.26635e-13
2.0679e-13
1.86915e-13
1.69064e-13
1.54323e-13
1.4301e-13
1.35106e-13
1.30516e-13
1.28887e-13
1.30205e-13
1.35961e-13
1.47171e-13
1.64891e-13
1.91817e-13
2.32748e-13
2.95799e-13
3.95403e-13
5.58838e-13
8.40564e-13
1.35619e-12
2.37232e-12
4.5383e-12
9.57888e-12
2.25259e-11
5.95378e-11
1.7912e-10
6.23821e-10
2.54338e-09
1.23791e-08
7.45745e-08
5.70852e-07
5.84081e-06
8.74963e-05
0.00206794
0.0264418
0.0464861
0.0486604
0.0487055
0.0487396
0.0487753
0.0488105
0.0488448
0.0488783
0.0489111
0.0489432
0.0489746
0.0490053
0.0490354
0.0490649
0.0490938
0.0491222
0.04915
0.0491772
0.049204
0.0492302
0.0492559
0.0492812
0.049306
0.0493304
0.0493544
0.049378
0.0494013
0.0494242
0.0494466
0.0494683
0.0494892
0.0495092
0.049529
0.0495496
0.0495728
0.0496015
0.0496387
0.0496871
0.0497469
0.0498136
0.0498784
0.049932
0.0499687
0.0499888
0.0499972
0.0499996
0.05
0.05
0.05
0.05
0.05
0.05
0.05
0.05
0.05
0.05
0.05
0.05
0.05
0.05
0.05
0.05
0.05
0.05
0.05
0.05
0.05
0.05
0.05
0.05
0.05
0.05
0.05
0.05
0.05
5.22945e-27
5.19398e-27
5.38375e-27
6.0599e-27
7.52828e-27
1.01998e-26
1.47828e-26
2.26867e-26
3.68407e-26
6.34958e-26
1.16403e-25
2.26724e-25
4.67024e-25
1.01018e-24
2.2754e-24
5.29221e-24
1.26072e-23
3.05438e-23
7.47967e-23
1.84266e-22
4.55143e-22
1.12506e-21
2.78235e-21
6.89244e-21
1.71465e-20
4.29828e-20
1.08858e-19
2.7865e-19
7.18879e-19
1.85806e-18
4.77414e-18
1.20921e-17
2.99664e-17
7.22303e-17
1.68505e-16
3.78953e-16
8.18449e-16
1.69246e-15
3.3434e-15
6.30051e-15
1.1316e-14
1.93652e-14
3.15836e-14
4.91363e-14
7.30398e-14
1.03996e-13
1.42197e-13
1.87057e-13
2.36802e-13
2.88365e-13
3.37237e-13
3.75861e-13
3.93985e-13
3.93227e-13
3.85339e-13
3.67603e-13
3.41845e-13
3.1202e-13
2.821e-13
2.55162e-13
2.32852e-13
2.15644e-13
2.03539e-13
1.96382e-13
1.9369e-13
1.95409e-13
2.03613e-13
2.19979e-13
2.45988e-13
2.85526e-13
3.45663e-13
4.3827e-13
5.8451e-13
8.2441e-13
1.23774e-12
1.9948e-12
3.48892e-12
6.67495e-12
1.41001e-11
3.32044e-11
8.78791e-11
2.65623e-10
9.2969e-10
3.80917e-09
1.87987e-08
1.14787e-07
8.93277e-07
9.4362e-06
0.000148455
0.00351494
0.0315288
0.0474807
0.0486715
0.0487094
0.0487438
0.0487795
0.0488145
0.0488487
0.0488821
0.0489148
0.0489468
0.0489781
0.0490088
0.0490388
0.0490682
0.0490971
0.0491253
0.0491531
0.0491802
0.0492069
0.0492331
0.0492588
0.049284
0.0493087
0.0493331
0.049357
0.0493806
0.0494038
0.0494267
0.049449
0.0494707
0.0494914
0.0495115
0.0495312
0.0495517
0.049575
0.0496037
0.049641
0.0496896
0.0497494
0.0498158
0.0498802
0.0499332
0.0499694
0.0499891
0.0499973
0.0499996
0.05
0.05
0.05
0.05
0.05
0.05
0.05
0.05
0.05
0.05
0.05
0.05
0.05
0.05
0.05
0.05
0.05
0.05
0.05
0.05
0.05
0.05
0.05
0.05
0.05
0.05
0.05
0.05
0.05
1.42479e-26
1.41413e-26
1.46189e-26
1.63388e-26
2.00929e-26
2.69273e-26
3.85751e-26
5.84171e-26
9.33731e-26
1.57947e-25
2.83366e-25
5.38747e-25
1.08114e-24
2.2754e-24
4.98444e-24
1.12763e-23
2.61465e-23
6.1727e-23
1.47508e-22
3.55195e-22
8.5902e-22
2.08261e-21
5.05978e-21
1.23331e-20
3.02356e-20
7.48068e-20
1.87276e-19
4.74575e-19
1.21374e-18
3.11359e-18
7.94849e-18
2.00208e-17
4.9379e-17
1.18531e-16
2.75512e-16
6.17541e-16
1.32945e-15
2.7401e-15
5.39372e-15
1.01244e-14
1.81066e-14
3.08458e-14
5.00711e-14
7.75218e-14
1.14668e-13
1.62467e-13
2.2107e-13
2.89445e-13
3.6475e-13
4.42243e-13
5.15107e-13
5.72183e-13
5.98695e-13
5.9729e-13
5.85095e-13
5.58262e-13
5.19539e-13
4.74719e-13
4.29628e-13
3.88932e-13
3.55136e-13
3.28978e-13
3.10524e-13
2.99519e-13
2.95301e-13
2.97766e-13
3.09931e-13
3.34457e-13
3.73493e-13
4.32816e-13
5.23051e-13
6.61863e-13
8.81099e-13
1.24079e-12
1.86032e-12
2.99665e-12
5.2418e-12
1.00327e-11
2.12201e-11
5.00588e-11
1.3282e-10
4.03324e-10
1.41901e-09
5.86035e-09
2.93341e-08
1.8155e-07
1.44551e-06
1.58184e-05
0.000263185
0.0060668
0.0361302
0.0481095
0.048678
0.0487133
0.0487481
0.0487838
0.0488187
0.0488528
0.0488861
0.0489187
0.0489506
0.0489818
0.0490124
0.0490423
0.0490717
0.0491004
0.0491286
0.0491563
0.0491834
0.04921
0.0492361
0.0492617
0.0492869
0.0493116
0.0493358
0.0493597
0.0493833
0.0494064
0.0494292
0.0494515
0.0494731
0.0494938
0.0495138
0.0495335
0.049554
0.0495773
0.0496061
0.0496436
0.0496922
0.049752
0.0498182
0.0498822
0.0499346
0.0499701
0.0499894
0.0499974
0.0499996
0.05
0.05
0.05
0.05
0.05
0.05
0.05
0.05
0.05
0.05
0.05
0.05
0.05
0.05
0.05
0.05
0.05
0.05
0.05
0.05
0.05
0.05
0.05
0.05
0.05
0.05
0.05
0.05
0.05
3.98631e-26
3.95378e-26
4.07691e-26
4.52602e-26
5.51173e-26
7.30771e-26
1.03497e-25
1.54715e-25
2.43544e-25
4.04623e-25
7.10973e-25
1.32049e-24
2.58321e-24
5.29221e-24
1.12763e-23
2.48115e-23
5.59807e-23
1.28721e-22
2.99989e-22
7.0557e-22
1.66949e-21
3.96672e-21
9.46047e-21
2.26728e-20
5.47347e-20
1.33548e-19
3.30195e-19
8.27549e-19
2.09589e-18
5.33004e-18
1.35021e-17
3.37778e-17
8.28021e-17
1.97669e-16
4.57141e-16
1.0198e-15
2.18537e-15
4.48343e-15
8.7832e-15
1.64038e-14
2.91818e-14
4.94405e-14
7.98058e-14
1.22865e-13
1.80731e-13
2.54692e-13
3.44769e-13
4.49181e-13
5.63399e-13
6.80096e-13
7.89026e-13
8.73807e-13
9.12973e-13
9.10642e-13
8.9215e-13
8.51928e-13
7.9399e-13
7.26754e-13
6.58835e-13
5.9738e-13
5.4621e-13
5.06536e-13
4.78559e-13
4.61862e-13
4.55556e-13
4.59459e-13
4.78195e-13
5.15844e-13
5.7561e-13
6.66368e-13
8.04321e-13
1.01621e-12
1.351e-12
1.90034e-12
2.84667e-12
4.58564e-12
8.02478e-12
1.53741e-11
3.25708e-11
7.70116e-11
2.05089e-10
6.25611e-10
2.21527e-09
9.24312e-09
4.68525e-08
2.95504e-07
2.41551e-06
2.7535e-05
0.000485583
0.0104026
0.0401554
0.048441
0.048683
0.0487173
0.0487526
0.0487882
0.048823
0.048857
0.0488902
0.0489227
0.0489545
0.0489856
0.0490161
0.049046
0.0490752
0.0491039
0.049132
0.0491596
0.0491867
0.0492132
0.0492392
0.0492648
0.0492899
0.0493145
0.0493387
0.0493626
0.049386
0.0494092
0.0494319
0.0494541
0.0494757
0.0494963
0.0495162
0.0495359
0.0495564
0.0495798
0.0496087
0.0496463
0.0496951
0.0497548
0.0498208
0.0498843
0.049936
0.0499709
0.0499898
0.0499975
0.0499996
0.05
0.05
0.05
0.05
0.05
0.05
0.05
0.05
0.05
0.05
0.05
0.05
0.05
0.05
0.05
0.05
0.05
0.05
0.05
0.05
0.05
0.05
0.05
0.05
0.05
0.05
0.05
0.05
0.05
1.13347e-25
1.12344e-25
1.15551e-25
1.27446e-25
1.53743e-25
2.01741e-25
2.82602e-25
4.17265e-25
6.47373e-25
1.05733e-24
1.82153e-24
3.30858e-24
6.31614e-24
1.26072e-23
2.61465e-23
5.59807e-23
1.22936e-22
2.75346e-22
6.25778e-22
1.43728e-21
3.32605e-21
7.74121e-21
1.81137e-20
4.2658e-20
1.01349e-19
2.43722e-19
5.94753e-19
1.4731e-18
3.69129e-18
9.29663e-18
2.33426e-17
5.79285e-17
1.40965e-16
3.34239e-16
7.68082e-16
1.70317e-15
3.62843e-15
7.40056e-15
1.44119e-14
2.67518e-14
4.72907e-14
7.96031e-14
1.27658e-13
1.95281e-13
2.85486e-13
3.99974e-13
5.38474e-13
6.97957e-13
8.71233e-13
1.04701e-12
1.21002e-12
1.33646e-12
1.39488e-12
1.39135e-12
1.36393e-12
1.30435e-12
1.2182e-12
1.11762e-12
1.01549e-12
9.22838e-13
8.4551e-13
7.85553e-13
7.43405e-13
7.18431e-13
7.0945e-13
7.16162e-13
7.46029e-13
8.05059e-13
8.98169e-13
1.03939e-12
1.25372e-12
1.58241e-12
2.10189e-12
2.95414e-12
4.4239e-12
7.13006e-12
1.24873e-11
2.39611e-11
5.08572e-11
1.20633e-10
3.22785e-10
9.89197e-10
3.53354e-09
1.49055e-08
7.66318e-08
4.94309e-07
4.15864e-06
4.98048e-05
0.000929587
0.0168042
0.0434689
0.0485864
0.0486875
0.0487216
0.0487572
0.0487927
0.0488274
0.0488612
0.0488944
0.0489268
0.0489585
0.0489895
0.0490199
0.0490497
0.0490789
0.0491075
0.0491355
0.049163
0.04919
0.0492165
0.0492425
0.049268
0.049293
0.0493176
0.0493417
0.0493655
0.0493889
0.049412
0.0494347
0.0494569
0.0494783
0.0494989
0.0495188
0.0495384
0.0495589
0.0495824
0.0496114
0.0496491
0.0496981
0.0497578
0.0498235
0.0498864
0.0499375
0.0499718
0.0499902
0.0499976
0.0499996
0.05
0.05
0.05
0.05
0.05
0.05
0.05
0.05
0.05
0.05
0.05
0.05
0.05
0.05
0.05
0.05
0.05
0.05
0.05
0.05
0.05
0.05
0.05
0.05
0.05
0.05
0.05
0.05
0.05
3.24664e-25
3.21567e-25
3.29904e-25
3.61545e-25
4.3218e-25
5.6153e-25
7.78526e-25
1.1363e-24
1.73917e-24
2.79542e-24
4.72742e-24
8.40872e-24
1.5686e-23
3.05438e-23
6.1727e-23
1.28721e-22
2.75346e-22
6.01065e-22
1.33264e-21
2.98946e-21
6.76552e-21
1.54206e-20
3.53876e-20
8.18593e-20
1.91333e-19
4.53339e-19
1.09149e-18
2.67043e-18
6.6164e-18
1.64896e-17
4.09988e-17
1.00821e-16
2.4326e-16
5.72187e-16
1.30492e-15
2.87263e-15
6.07673e-15
1.23072e-14
2.3797e-14
4.38539e-14
7.69521e-14
1.28563e-13
2.04642e-13
3.10802e-13
4.51305e-13
6.28356e-13
8.41099e-13
1.08446e-12
1.34705e-12
1.61151e-12
1.85539e-12
2.04459e-12
2.13259e-12
2.12776e-12
2.08826e-12
2.00129e-12
1.8741e-12
1.7241e-12
1.57087e-12
1.43152e-12
1.315e-12
1.22484e-12
1.16182e-12
1.12507e-12
1.11301e-12
1.12528e-12