/*--------------------------------*- C++ -*----------------------------------*\
  =========                 |
  \\      /  F ield         | OpenFOAM: The Open Source CFD Toolbox
   \\    /   O peration     | Website:  https://openfoam.org
    \\  /    A nd           | Version:  13
     \\/     M anipulation  |
\*---------------------------------------------------------------------------*/
FoamFile
{
    format      ascii;
    class       volScalarField;
    location    "0.0017";
    object      CO2;
}
// * * * * * * * * * * * * * * * * * * * * * * * * * * * * * * * * * * * * * //

dimensions      [];

internalField   nonuniform List<scalar> 
33334
(
0.137164
0.137164
0.137164
0.137164
0.137164
0.137164
0.137164
0.137164
0.137164
0.137164
0.137164
0.137164
0.137164
0.137164
0.137164
0.137164
0.137164
0.137164
0.137164
0.137164
0.137164
0.137164
0.137164
0.137164
0.137164
0.137164
0.137164
0.137164
0.137164
0.137164
0.137164
0.137164
0.137164
0.137164
0.137164
0.137164
0.137164
0.137164
0.137164
0.137164
0.137164
0.137164
0.137164
0.137164
0.137164
0.137164
0.137164
0.137164
0.137164
0.137164
0.137164
0.137164
0.137164
0.137164
0.137164
0.137164
0.137164
0.137164
0.137164
0.137164
0.137164
0.137164
0.137164
0.137164
0.137164
0.137164
0.137164
0.137164
0.137164
0.137164
0.137164
0.137164
0.137164
0.137164
0.137164
0.137164
0.137164
0.137164
0.137164
0.137164
0.137164
0.137164
0.137164
0.137164
0.137164
0.137164
0.137164
0.137163
0.137152
0.136945
0.130868
0.0589658
0.00833559
0.00365103
0.00353859
0.0034445
0.00334597
0.00324914
0.00315472
0.00306243
0.00297219
0.002884
0.00279777
0.00271338
0.00263073
0.00254976
0.00247041
0.00239262
0.00231634
0.00224152
0.00216811
0.00209607
0.00202537
0.00195596
0.00188775
0.00182064
0.00175452
0.00168935
0.00162523
0.00156249
0.00150162
0.00144306
0.00138674
0.00133146
0.00127436
0.00121046
0.00113247
0.00103136
0.000899065
0.000733975
0.000546991
0.0003619
0.000206065
9.70149e-05
3.55914e-05
9.28877e-06
1.50619e-06
1.25821e-07
4.28151e-09
4.62833e-11
4.66054e-13
3.45143e-13
3.44779e-13
3.4442e-13
3.43212e-13
3.3984e-13
3.33049e-13
3.22444e-13
3.08884e-13
2.94091e-13
2.79745e-13
2.66776e-13
2.55272e-13
2.44824e-13
2.34913e-13
2.25136e-13
2.15281e-13
2.05306e-13
1.95283e-13
1.85321e-13
1.75514e-13
1.65911e-13
1.56516e-13
1.47304e-13
1.38234e-13
1.29265e-13
0.137164
0.137164
0.137164
0.137164
0.137164
0.137164
0.137164
0.137164
0.137164
0.137164
0.137164
0.137164
0.137164
0.137164
0.137164
0.137164
0.137164
0.137164
0.137164
0.137164
0.137164
0.137164
0.137164
0.137164
0.137164
0.137164
0.137164
0.137164
0.137164
0.137164
0.137164
0.137164
0.137164
0.137164
0.137164
0.137164
0.137164
0.137164
0.137164
0.137164
0.137164
0.137164
0.137164
0.137164
0.137164
0.137164
0.137164
0.137164
0.137164
0.137164
0.137164
0.137164
0.137164
0.137164
0.137164
0.137164
0.137164
0.137164
0.137164
0.137164
0.137164
0.137164
0.137164
0.137164
0.137164
0.137164
0.137164
0.137164
0.137164
0.137164
0.137164
0.137164
0.137164
0.137164
0.137164
0.137164
0.137164
0.137164
0.137164
0.137164
0.137164
0.137164
0.137164
0.137164
0.137164
0.137164
0.137164
0.137163
0.137153
0.13696
0.131328
0.0608477
0.00872937
0.00365253
0.00353697
0.00344308
0.00334472
0.00324806
0.00315388
0.0030619
0.00297199
0.00288402
0.00279788
0.0027135
0.00263087
0.00254992
0.00247058
0.0023928
0.00231653
0.00224172
0.00216831
0.00209628
0.00202559
0.00195618
0.00188797
0.00182086
0.00175475
0.00168958
0.00162546
0.00156271
0.00150184
0.00144328
0.00138695
0.00133167
0.00127459
0.00121073
0.00113281
0.0010318
0.000899594
0.000734544
0.000547503
0.000362271
0.000206275
9.71066e-05
3.56193e-05
9.29269e-06
1.50575e-06
1.25714e-07
4.27921e-09
4.63177e-11
4.66369e-13
3.45134e-13
3.44771e-13
3.44412e-13
3.43206e-13
3.39836e-13
3.33047e-13
3.22444e-13
3.08885e-13
2.94092e-13
2.79745e-13
2.66776e-13
2.55272e-13
2.44823e-13
2.34912e-13
2.25136e-13
2.1528e-13
2.05305e-13
1.95282e-13
1.8532e-13
1.75513e-13
1.6591e-13
1.56516e-13
1.47304e-13
1.38233e-13
1.29264e-13
0.137164
0.137164
0.137164
0.137164
0.137164
0.137164
0.137164
0.137164
0.137164
0.137164
0.137164
0.137164
0.137164
0.137164
0.137164
0.137164
0.137164
0.137164
0.137164
0.137164
0.137164
0.137164
0.137164
0.137164
0.137164
0.137164
0.137164
0.137164
0.137164
0.137164
0.137164
0.137164
0.137164
0.137164
0.137164
0.137164
0.137164
0.137164
0.137164
0.137164
0.137164
0.137164
0.137164
0.137164
0.137164
0.137164
0.137164
0.137164
0.137164
0.137164
0.137164
0.137164
0.137164
0.137164
0.137164
0.137164
0.137164
0.137164
0.137164
0.137164
0.137164
0.137164
0.137164
0.137164
0.137164
0.137164
0.137164
0.137164
0.137164
0.137164
0.137164
0.137164
0.137164
0.137164
0.137164
0.137164
0.137164
0.137164
0.137164
0.137164
0.137164
0.137164
0.137164
0.137164
0.137164
0.137164
0.137164
0.137163
0.137152
0.136939
0.130751
0.0587997
0.00831547
0.00364686
0.00353452
0.00344077
0.00334269
0.00324633
0.0031524
0.00306057
0.00297072
0.00288275
0.00279661
0.00271227
0.00262966
0.00254874
0.00246943
0.00239168
0.00231544
0.00224065
0.00216727
0.00209527
0.0020246
0.00195521
0.00188703
0.00181995
0.00175387
0.00168872
0.00162463
0.00156191
0.00150107
0.00144253
0.00138623
0.00133098
0.0012739
0.00121004
0.00113211
0.00103108
0.000898873
0.000733846
0.00054689
0.000361814
0.000206004
9.69773e-05
3.55672e-05
9.27612e-06
1.50259e-06
1.25472e-07
4.27539e-09
4.63639e-11
4.66792e-13
3.45107e-13
3.44748e-13
3.44394e-13
3.4319e-13
3.39823e-13
3.33037e-13
3.22437e-13
3.0888e-13
2.94087e-13
2.79741e-13
2.66772e-13
2.55267e-13
2.44818e-13
2.34907e-13
2.2513e-13
2.15275e-13
2.053e-13
1.95278e-13
1.85317e-13
1.75509e-13
1.65906e-13
1.56512e-13
1.473e-13
1.3823e-13
1.29261e-13
0.137164
0.137164
0.137164
0.137164
0.137164
0.137164
0.137164
0.137164
0.137164
0.137164
0.137164
0.137164
0.137164
0.137164
0.137164
0.137164
0.137164
0.137164
0.137164
0.137164
0.137164
0.137164
0.137164
0.137164
0.137164
0.137164
0.137164
0.137164
0.137164
0.137164
0.137164
0.137164
0.137164
0.137164
0.137164
0.137164
0.137164
0.137164
0.137164
0.137164
0.137164
0.137164
0.137164
0.137164
0.137164
0.137164
0.137164
0.137164
0.137164
0.137164
0.137164
0.137164
0.137164
0.137164
0.137164
0.137164
0.137164
0.137164
0.137164
0.137164
0.137164
0.137164
0.137164
0.137164
0.137164
0.137164
0.137164
0.137164
0.137164
0.137164
0.137164
0.137164
0.137164
0.137164
0.137164
0.137164
0.137164
0.137164
0.137164
0.137164
0.137164
0.137164
0.137164
0.137164
0.137164
0.137164
0.137164
0.137163
0.137151
0.136911
0.129959
0.0556644
0.00771058
0.00363932
0.00353126
0.00343743
0.00333943
0.00324318
0.00314928
0.00305746
0.0029676
0.00287967
0.0027936
0.00270933
0.0026268
0.00254595
0.00246671
0.00238903
0.00231286
0.00223813
0.00216482
0.00209288
0.00202228
0.00195296
0.00188484
0.00181783
0.0017518
0.00168672
0.00162269
0.00156003
0.00149925
0.00144078
0.00138454
0.00132934
0.00127231
0.00120847
0.00113055
0.00102953
0.000897347
0.000732412
0.000545653
0.000360875
0.000205398
9.6652e-05
3.54293e-05
9.23585e-06
1.49603e-06
1.25001e-07
4.2652e-09
4.63382e-11
4.66947e-13
3.45059e-13
3.44712e-13
3.44366e-13
3.4317e-13
3.39807e-13
3.33022e-13
3.22425e-13
3.0887e-13
2.94078e-13
2.79732e-13
2.66763e-13
2.55257e-13
2.44809e-13
2.34898e-13
2.25122e-13
2.15268e-13
2.05294e-13
1.95272e-13
1.85311e-13
1.75504e-13
1.65901e-13
1.56508e-13
1.47296e-13
1.38226e-13
1.29258e-13
0.137164
0.137164
0.137164
0.137164
0.137164
0.137164
0.137164
0.137164
0.137164
0.137164
0.137164
0.137164
0.137164
0.137164
0.137164
0.137164
0.137164
0.137164
0.137164
0.137164
0.137164
0.137164
0.137164
0.137164
0.137164
0.137164
0.137164
0.137164
0.137164
0.137164
0.137164
0.137164
0.137164
0.137164
0.137164
0.137164
0.137164
0.137164
0.137164
0.137164
0.137164
0.137164
0.137164
0.137164
0.137164
0.137164
0.137164
0.137164
0.137164
0.137164
0.137164
0.137164
0.137164
0.137164
0.137164
0.137164
0.137164
0.137164
0.137164
0.137164
0.137164
0.137164
0.137164
0.137164
0.137164
0.137164
0.137164
0.137164
0.137164
0.137164
0.137164
0.137164
0.137164
0.137164
0.137164
0.137164
0.137164
0.137164
0.137164
0.137164
0.137164
0.137164
0.137164
0.137164
0.137164
0.137164
0.137164
0.137163
0.137148
0.13686
0.128591
0.0514659
0.006963
0.00363067
0.00352676
0.0034326
0.00333455
0.00323836
0.0031445
0.00305274
0.00296298
0.00287516
0.00278921
0.00270506
0.00262264
0.00254189
0.00246275
0.00238517
0.00230909
0.00223447
0.00216125
0.00208941
0.0020189
0.00194967
0.00188164
0.00181472
0.00174878
0.00168379
0.00161985
0.00155728
0.00149659
0.00143822
0.00138207
0.00132695
0.00126998
0.00120619
0.00112829
0.00102729
0.000895157
0.000730359
0.000543874
0.000359498
0.000204472
9.61323e-05
3.52056e-05
9.17083e-06
1.48513e-06
1.24137e-07
4.24106e-09
4.61612e-11
4.66678e-13
3.44986e-13
3.4466e-13
3.44331e-13
3.4315e-13
3.39795e-13
3.33012e-13
3.22415e-13
3.08861e-13
2.9407e-13
2.79724e-13
2.66755e-13
2.5525e-13
2.44802e-13
2.34892e-13
2.25116e-13
2.15262e-13
2.05289e-13
1.95267e-13
1.85307e-13
1.755e-13
1.65898e-13
1.56505e-13
1.47294e-13
1.38224e-13
1.29256e-13
0.137164
0.137164
0.137164
0.137164
0.137164
0.137164
0.137164
0.137164
0.137164
0.137164
0.137164
0.137164
0.137164
0.137164
0.137164
0.137164
0.137164
0.137164
0.137164
0.137164
0.137164
0.137164
0.137164
0.137164
0.137164
0.137164
0.137164
0.137164
0.137164
0.137164
0.137164
0.137164
0.137164
0.137164
0.137164
0.137164
0.137164
0.137164
0.137164
0.137164
0.137164
0.137164
0.137164
0.137164
0.137164
0.137164
0.137164
0.137164
0.137164
0.137164
0.137164
0.137164
0.137164
0.137164
0.137164
0.137164
0.137164
0.137164
0.137164
0.137164
0.137164
0.137164
0.137164
0.137164
0.137164
0.137164
0.137164
0.137164
0.137164
0.137164
0.137164
0.137164
0.137164
0.137164
0.137164
0.137164
0.137164
0.137164
0.137164
0.137164
0.137164
0.137164
0.137164
0.137164
0.137164
0.137164
0.137164
0.137163
0.137145
0.136788
0.126573
0.0465472
0.00619586
0.00362128
0.00352085
0.00342626
0.00332822
0.00323217
0.00313846
0.00304685
0.00295725
0.00286959
0.00278378
0.00269977
0.00261748
0.00253687
0.00245786
0.00238041
0.00230445
0.00222995
0.00215685
0.00208512
0.00201472
0.00194561
0.0018777
0.00181088
0.00174505
0.00168017
0.00161634
0.00155389
0.00149331
0.00143505
0.00137901
0.00132399
0.0012671
0.00120335
0.00112546
0.00102446
0.000892349
0.000727687
0.000541523
0.000357649
0.000203213
9.54233e-05
3.48996e-05
9.08028e-06
1.46922e-06
1.22772e-07
4.19741e-09
4.57554e-11
4.65775e-13
3.44875e-13
3.44581e-13
3.44278e-13
3.43124e-13
3.39786e-13
3.33008e-13
3.22411e-13
3.08857e-13
2.94066e-13
2.7972e-13
2.66751e-13
2.55246e-13
2.44798e-13
2.34889e-13
2.25114e-13
2.1526e-13
2.05287e-13
1.95265e-13
1.85305e-13
1.75499e-13
1.65897e-13
1.56504e-13
1.47293e-13
1.38223e-13
1.29255e-13
0.137164
0.137164
0.137164
0.137164
0.137164
0.137164
0.137164
0.137164
0.137164
0.137164
0.137164
0.137164
0.137164
0.137164
0.137164
0.137164
0.137164
0.137164
0.137164
0.137164
0.137164
0.137164
0.137164
0.137164
0.137164
0.137164
0.137164
0.137164
0.137164
0.137164
0.137164
0.137164
0.137164
0.137164
0.137164
0.137164
0.137164
0.137164
0.137164
0.137164
0.137164
0.137164
0.137164
0.137164
0.137164
0.137164
0.137164
0.137164
0.137164
0.137164
0.137164
0.137164
0.137164
0.137164
0.137164
0.137164
0.137164
0.137164
0.137164
0.137164
0.137164
0.137164
0.137164
0.137164
0.137164
0.137164
0.137164
0.137164
0.137164
0.137164
0.137164
0.137164
0.137164
0.137164
0.137164
0.137164
0.137164
0.137164
0.137164
0.137164
0.137164
0.137164
0.137164
0.137164
0.137164
0.137164
0.137164
0.137162
0.137139
0.136677
0.123666
0.0411605
0.00547921
0.00361156
0.00351387
0.00341881
0.00332085
0.00322502
0.00313152
0.0030401
0.00295069
0.0028632
0.00277756
0.00269371
0.00261158
0.00253112
0.00245226
0.00237495
0.00229914
0.00222477
0.00215181
0.00208021
0.00200995
0.00194096
0.00187317
0.00180648
0.00174077
0.00167601
0.00161231
0.00154998
0.00148953
0.0014314
0.00137548
0.00132057
0.00126376
0.00120004
0.00112214
0.00102109
0.000888963
0.000724423
0.000538616
0.000355345
0.00020164
9.45382e-05
3.45156e-05
8.96439e-06
1.44819e-06
1.20878e-07
4.13216e-09
4.50844e-11
4.64009e-13
3.44702e-13
3.44457e-13
3.44191e-13
3.43079e-13
3.39771e-13
3.33004e-13
3.22411e-13
3.08857e-13
2.94066e-13
2.79719e-13
2.6675e-13
2.55245e-13
2.44797e-13
2.34888e-13
2.25113e-13
2.15259e-13
2.05286e-13
1.95265e-13
1.85305e-13
1.75499e-13
1.65897e-13
1.56504e-13
1.47293e-13
1.38223e-13
1.29255e-13
0.137164
0.137164
0.137164
0.137164
0.137164
0.137164
0.137164
0.137164
0.137164
0.137164
0.137164
0.137164
0.137164
0.137164
0.137164
0.137164
0.137164
0.137164
0.137164
0.137164
0.137164
0.137164
0.137164
0.137164
0.137164
0.137164
0.137164
0.137164
0.137164
0.137164
0.137164
0.137164
0.137164
0.137164
0.137164
0.137164
0.137164
0.137164
0.137164
0.137164
0.137164
0.137164
0.137164
0.137164
0.137164
0.137164
0.137164
0.137164
0.137164
0.137164
0.137164
0.137164
0.137164
0.137164
0.137164
0.137164
0.137164
0.137164
0.137164
0.137164
0.137164
0.137164
0.137164
0.137164
0.137164
0.137164
0.137164
0.137164
0.137164
0.137164
0.137164
0.137164
0.137164
0.137164
0.137164
0.137164
0.137164
0.137164
0.137164
0.137164
0.137164
0.137164
0.137164
0.137164
0.137164
0.137164
0.137164
0.137162
0.137131
0.136502
0.119348
0.0354286
0.00486557
0.00360176
0.00350607
0.0034105
0.00331269
0.00321712
0.00312384
0.00303264
0.00294342
0.00285613
0.00277067
0.002687
0.00260505
0.00252476
0.00244606
0.00236891
0.00229325
0.00221904
0.00214622
0.00207477
0.00200464
0.00193579
0.00186814
0.00180158
0.00173601
0.00167138
0.0016078
0.00154561
0.0014853
0.00142731
0.00137153
0.00131673
0.00126
0.0011963
0.00111836
0.00101722
0.000885048
0.000720615
0.000535202
0.000352626
0.000199782
9.34899e-05
3.40575e-05
8.82412e-06
1.42218e-06
1.18468e-07
4.04507e-09
4.41335e-11
4.61244e-13
3.4444e-13
3.44268e-13
3.4405e-13
3.42997e-13
3.39737e-13
3.32993e-13
3.22409e-13
3.08858e-13
2.94067e-13
2.7972e-13
2.6675e-13
2.55245e-13
2.44797e-13
2.34888e-13
2.25113e-13
2.15259e-13
2.05286e-13
1.95265e-13
1.85305e-13
1.75499e-13
1.65897e-13
1.56504e-13
1.47293e-13
1.38223e-13
1.29255e-13
0.137164
0.137164
0.137164
0.137164
0.137164
0.137164
0.137164
0.137164
0.137164
0.137164
0.137164
0.137164
0.137164
0.137164
0.137164
0.137164
0.137164
0.137164
0.137164
0.137164
0.137164
0.137164
0.137164
0.137164
0.137164
0.137164
0.137164
0.137164
0.137164
0.137164
0.137164
0.137164
0.137164
0.137164
0.137164
0.137164
0.137164
0.137164
0.137164
0.137164
0.137164
0.137164
0.137164
0.137164
0.137164
0.137164
0.137164
0.137164
0.137164
0.137164
0.137164
0.137164
0.137164
0.137164
0.137164
0.137164
0.137164
0.137164
0.137164
0.137164
0.137164
0.137164
0.137164
0.137164
0.137164
0.137164
0.137164
0.137164
0.137164
0.137164
0.137164
0.137164
0.137164
0.137164
0.137164
0.137164
0.137164
0.137164
0.137164
0.137164
0.137164
0.137164
0.137164
0.137164
0.137164
0.137164
0.137164
0.137161
0.137119
0.136231
0.113126
0.0295283
0.00439447
0.00359193
0.00349761
0.00340146
0.00330384
0.00320854
0.00311551
0.00302453
0.00293553
0.00284845
0.0027632
0.00267972
0.00259796
0.00251784
0.00243933
0.00236235
0.00228685
0.0022128
0.00214014
0.00206884
0.00199887
0.00193016
0.00186266
0.00179624
0.00173081
0.00166632
0.00160288
0.00154083
0.00148066
0.00142282
0.00136719
0.00131251
0.00125584
0.00119216
0.00111415
0.0010129
0.000880643
0.000716309
0.000531324
0.000349529
0.000197658
9.2287e-05
3.35284e-05
8.66048e-06
1.3914e-06
1.15556e-07
3.93638e-09
4.28966e-11
4.57368e-13
3.44047e-13
3.43987e-13
3.43839e-13
3.42859e-13
3.39666e-13
3.32962e-13
3.22397e-13
3.08857e-13
2.9407e-13
2.79723e-13
2.66752e-13
2.55246e-13
2.44798e-13
2.34888e-13
2.25113e-13
2.15259e-13
2.05286e-13
1.95265e-13
1.85305e-13
1.75499e-13
1.65897e-13
1.56504e-13
1.47293e-13
1.38223e-13
1.29256e-13
0.137164
0.137164
0.137164
0.137164
0.137164
0.137164
0.137164
0.137164
0.137164
0.137164
0.137164
0.137164
0.137164
0.137164
0.137164
0.137164
0.137164
0.137164
0.137164
0.137164
0.137164
0.137164
0.137164
0.137164
0.137164
0.137164
0.137164
0.137164
0.137164
0.137164
0.137164
0.137164
0.137164
0.137164
0.137164
0.137164
0.137164
0.137164
0.137164
0.137164
0.137164
0.137164
0.137164
0.137164
0.137164
0.137164
0.137164
0.137164
0.137164
0.137164
0.137164
0.137164
0.137164
0.137164
0.137164
0.137164
0.137164
0.137164
0.137164
0.137164
0.137164
0.137164
0.137164
0.137164
0.137164
0.137164
0.137164
0.137164
0.137164
0.137164
0.137164
0.137164
0.137164
0.137164
0.137164
0.137164
0.137164
0.137164
0.137164
0.137164
0.137164
0.137164
0.137164
0.137164
0.137164
0.137164
0.137164
0.13716
0.1371
0.135786
0.104327
0.0237395
0.00406202
0.00358196
0.00348854
0.00339178
0.00329439
0.00319938
0.0031066
0.00301586
0.0029271
0.00284024
0.0027552
0.00267193
0.00259037
0.00251045
0.00243212
0.00235532
0.00228
0.00220611
0.00213362
0.00206248
0.00199267
0.00192412
0.00185676
0.00179049
0.00172521
0.00166086
0.00159756
0.00153566
0.00147565
0.00141797
0.00136248
0.00130792
0.00125132
0.00118764
0.00110954
0.00100814
0.000875768
0.000711523
0.000526999
0.000346066
0.000195276
9.09334e-05
3.29303e-05
8.47416e-06
1.35595e-06
1.1215e-07
3.80634e-09
4.1378e-11
4.52324e-13
3.43487e-13
3.4356e-13
3.43521e-13
3.42651e-13
3.39544e-13
3.32896e-13
3.22364e-13
3.08846e-13
2.9407e-13
2.79726e-13
2.66755e-13
2.55248e-13
2.44799e-13
2.34888e-13
2.25113e-13
2.15259e-13
2.05286e-13
1.95265e-13
1.85305e-13
1.75499e-13
1.65897e-13
1.56504e-13
1.47293e-13
1.38223e-13
1.29256e-13
0.137164
0.137164
0.137164
0.137164
0.137164
0.137164
0.137164
0.137164
0.137164
0.137164
0.137164
0.137164
0.137164
0.137164
0.137164
0.137164
0.137164
0.137164
0.137164
0.137164
0.137164
0.137164
0.137164
0.137164
0.137164
0.137164
0.137164
0.137164
0.137164
0.137164
0.137164
0.137164
0.137164
0.137164
0.137164
0.137164
0.137164
0.137164
0.137164
0.137164
0.137164
0.137164
0.137164
0.137164
0.137164
0.137164
0.137164
0.137164
0.137164
0.137164
0.137164
0.137164
0.137164
0.137164
0.137164
0.137164
0.137164
0.137164
0.137164
0.137164
0.137164
0.137164
0.137164
0.137164
0.137164
0.137164
0.137164
0.137164
0.137164
0.137164
0.137164
0.137164
0.137164
0.137164
0.137164
0.137164
0.137164
0.137164
0.137164
0.137164
0.137164
0.137164
0.137164
0.137164
0.137164
0.137164
0.137164
0.137157
0.137068
0.135049
0.092851
0.0182952
0.00385414
0.00357182
0.00347888
0.00338155
0.00328442
0.00318972
0.0030972
0.00300672
0.0029182
0.00283157
0.00274676
0.00266371
0.00258235
0.00250263
0.00242449
0.00234788
0.00227274
0.00219903
0.00212671
0.00205574
0.00198608
0.00191769
0.00185049
0.00178437
0.00171923
0.00165503
0.00159189
0.00153013
0.00147028
0.00141276
0.00135742
0.00130298
0.00124645
0.00118274
0.00110452
0.00100294
0.000870423
0.000706257
0.000522228
0.000342235
0.000192637
8.94299e-05
3.22641e-05
8.2656e-06
1.31596e-06
1.08261e-07
3.65547e-09
3.95834e-11
4.46151e-13
3.42749e-13
3.42931e-13
3.43039e-13
3.42328e-13
3.39353e-13
3.3278e-13
3.22294e-13
3.08813e-13
2.94061e-13
2.79727e-13
2.66758e-13
2.55251e-13
2.44801e-13
2.3489e-13
2.25114e-13
2.1526e-13
2.05287e-13
1.95265e-13
1.85305e-13
1.755e-13
1.65897e-13
1.56504e-13
1.47293e-13
1.38224e-13
1.29256e-13
0.137164
0.137164
0.137164
0.137164
0.137164
0.137164
0.137164
0.137164
0.137164
0.137164
0.137164
0.137164
0.137164
0.137164
0.137164
0.137164
0.137164
0.137164
0.137164
0.137164
0.137164
0.137164
0.137164
0.137164
0.137164
0.137164
0.137164
0.137164
0.137164
0.137164
0.137164
0.137164
0.137164
0.137164
0.137164
0.137164
0.137164
0.137164
0.137164
0.137164
0.137164
0.137164
0.137164
0.137164
0.137164
0.137164
0.137164
0.137164
0.137164
0.137164
0.137164
0.137164
0.137164
0.137164
0.137164
0.137164
0.137164
0.137164
0.137164
0.137164
0.137164
0.137164
0.137164
0.137164
0.137164
0.137164
0.137164
0.137164
0.137164
0.137164
0.137164
0.137164
0.137164
0.137164
0.137164
0.137164
0.137164
0.137164
0.137164
0.137164
0.137164
0.137164
0.137164
0.137164
0.137164
0.137164
0.137163
0.137154
0.137016
0.133769
0.0791193
0.0134753
0.00373634
0.00356152
0.0034686
0.00337084
0.00327401
0.00317962
0.00308738
0.00299716
0.00290889
0.0028225
0.00273792
0.00265509
0.00257394
0.00249443
0.00241649
0.00234007
0.00226511
0.00219158
0.00211943
0.00204863
0.00197914
0.00191091
0.00184386
0.0017779
0.00171291
0.00164885
0.00158586
0.00152426
0.00146457
0.00140721
0.00135202
0.0012977
0.00124122
0.00117747
0.00109911
0.000997308
0.000864605
0.000700506
0.000517005
0.000338035
0.000189739
8.77771e-05
3.15307e-05
8.03529e-06
1.27157e-06
1.03911e-07
3.48507e-09
3.75265e-11
4.38933e-13
3.41799e-13
3.4207e-13
3.42362e-13
3.41827e-13
3.39058e-13
3.32601e-13
3.22173e-13
3.08742e-13
2.94031e-13
2.79719e-13
2.66758e-13
2.55254e-13
2.44804e-13
2.34892e-13
2.25115e-13
2.15261e-13
2.05287e-13
1.95266e-13
1.85306e-13
1.755e-13
1.65898e-13
1.56504e-13
1.47293e-13
1.38224e-13
1.29256e-13
0.137164
0.137164
0.137164
0.137164
0.137164
0.137164
0.137164
0.137164
0.137164
0.137164
0.137164
0.137164
0.137164
0.137164
0.137164
0.137164
0.137164
0.137164
0.137164
0.137164
0.137164
0.137164
0.137164
0.137164
0.137164
0.137164
0.137164
0.137164
0.137164
0.137164
0.137164
0.137164
0.137164
0.137164
0.137164
0.137164
0.137164
0.137164
0.137164
0.137164
0.137164
0.137164
0.137164
0.137164
0.137164
0.137164
0.137164
0.137164
0.137164
0.137164
0.137164
0.137164
0.137164
0.137164
0.137164
0.137164
0.137164
0.137164
0.137164
0.137164
0.137164
0.137164
0.137164
0.137164
0.137164
0.137164
0.137164
0.137164
0.137164
0.137164
0.137164
0.137164
0.137164
0.137164
0.137164
0.137164
0.137164
0.137164
0.137164
0.137164
0.137164
0.137164
0.137164
0.137164
0.137164
0.137164
0.137163
0.137148
0.136924
0.131491
0.0646269
0.00963963
0.00367504
0.0035511
0.00345771
0.00335971
0.00326322
0.00316914
0.00307717
0.00298722
0.00289921
0.00281306
0.00272872
0.00264611
0.00256518
0.00248587
0.00240813
0.0023319
0.00225713
0.00218378
0.00211181
0.00204118
0.00197185
0.00190378
0.0018369
0.00177108
0.00170624
0.00164233
0.00157949
0.00151805
0.00145852
0.00140132
0.00134629
0.00129208
0.00123564
0.00117183
0.0010933
0.00099123
0.000858307
0.000694264
0.000511326
0.000333462
0.000186581
8.59763e-05
3.07314e-05
7.78407e-06
1.22303e-06
9.91346e-08
3.29707e-09
3.5235e-11
4.30802e-13
3.4061e-13
3.40955e-13
3.41443e-13
3.41097e-13
3.38604e-13
3.32331e-13
3.21987e-13
3.08617e-13
2.93964e-13
2.79691e-13
2.6675e-13
2.55254e-13
2.44807e-13
2.34896e-13
2.25118e-13
2.15262e-13
2.05288e-13
1.95266e-13
1.85306e-13
1.755e-13
1.65898e-13
1.56505e-13
1.47294e-13
1.38224e-13
1.29256e-13
0.137164
0.137164
0.137164
0.137164
0.137164
0.137164
0.137164
0.137164
0.137164
0.137164
0.137164
0.137164
0.137164
0.137164
0.137164
0.137164
0.137164
0.137164
0.137164
0.137164
0.137164
0.137164
0.137164
0.137164
0.137164
0.137164
0.137164
0.137164
0.137164
0.137164
0.137164
0.137164
0.137164
0.137164
0.137164
0.137164
0.137164
0.137164
0.137164
0.137164
0.137164
0.137164
0.137164
0.137164
0.137164
0.137164
0.137164
0.137164
0.137164
0.137164
0.137164
0.137164
0.137164
0.137164
0.137164
0.137164
0.137164
0.137164
0.137164
0.137164
0.137164
0.137164
0.137164
0.137164
0.137164
0.137164
0.137164
0.137164
0.137164
0.137164
0.137164
0.137164
0.137164
0.137164
0.137164
0.137164
0.137164
0.137164
0.137164
0.137164
0.137164
0.137164
0.137164
0.137164
0.137164
0.137164
0.137162
0.137138
0.136757
0.127522
0.0506717
0.00691125
0.00364445
0.00354054
0.00344625
0.00334821
0.00325208
0.0031583
0.00306662
0.00297694
0.00288918
0.00280328
0.00271917
0.00263679
0.00255608
0.00247698
0.00239944
0.0023234
0.00224882
0.00217565
0.00210385
0.00203339
0.00196423
0.00189632
0.00182959
0.00176393
0.00169924
0.00163548
0.00157278
0.0015115
0.00145214
0.00139511
0.00134023
0.00128612
0.00122972
0.00116583
0.00108708
0.000984709
0.000851527
0.000687529
0.000505189
0.000328517
0.000183167
8.40304e-05
2.98686e-05
7.51324e-06
1.17072e-06
9.39876e-08
3.09398e-09
3.27467e-11
4.21891e-13
3.39168e-13
3.39582e-13
3.40264e-13
3.40103e-13
3.37934e-13
3.31922e-13
3.21714e-13
3.08422e-13
2.93844e-13
2.7963e-13
2.66724e-13
2.55246e-13
2.44808e-13
2.34899e-13
2.25121e-13
2.15264e-13
2.05289e-13
1.95267e-13
1.85306e-13
1.755e-13
1.65898e-13
1.56505e-13
1.47294e-13
1.38224e-13
1.29256e-13
0.137164
0.137164
0.137164
0.137164
0.137164
0.137164
0.137164
0.137164
0.137164
0.137164
0.137164
0.137164
0.137164
0.137164
0.137164
0.137164
0.137164
0.137164
0.137164
0.137164
0.137164
0.137164
0.137164
0.137164
0.137164
0.137164
0.137164
0.137164
0.137164
0.137164
0.137164
0.137164
0.137164
0.137164
0.137164
0.137164
0.137164
0.137164
0.137164
0.137164
0.137164
0.137164
0.137164
0.137164
0.137164
0.137164
0.137164
0.137164
0.137164
0.137164
0.137164
0.137164
0.137164
0.137164
0.137164
0.137164
0.137164
0.137164
0.137164
0.137164
0.137164
0.137164
0.137164
0.137164
0.137164
0.137164
0.137164
0.137164
0.137164
0.137164
0.137164
0.137164
0.137164
0.137164
0.137164
0.137164
0.137164
0.137164
0.137164
0.137164
0.137164
0.137164
0.137164
0.137164
0.137164
0.137164
0.13716
0.137121
0.136442
0.120521
0.0380489
0.00518612
0.00362658
0.00352977
0.00343433
0.00333639
0.00324062
0.00314715
0.00305575
0.00296633
0.00287884
0.00279318
0.00270931
0.00262715
0.00254666
0.00246777
0.00239042
0.00231458
0.00224019
0.0021672
0.00209558
0.00202528
0.00195629
0.00188854
0.00182197
0.00175646
0.00169191
0.0016283
0.00156575
0.00150462
0.00144543
0.00138857
0.00133384
0.00127984
0.00122346
0.00115946
0.00108047
0.000977746
0.000844267
0.000680302
0.000498597
0.000323204
0.000179501
8.19444e-05
2.89458e-05
7.22449e-06
1.11506e-06
8.85297e-08
2.87895e-09
3.01103e-11
4.12334e-13
3.37472e-13
3.37954e-13
3.3882e-13
3.38827e-13
3.36999e-13
3.31314e-13
3.21311e-13
3.08137e-13
2.93653e-13
2.7952e-13
2.66666e-13
2.5522e-13
2.44799e-13
2.34899e-13
2.25125e-13
2.15268e-13
2.05292e-13
1.95268e-13
1.85307e-13
1.75501e-13
1.65898e-13
1.56505e-13
1.47294e-13
1.38224e-13
1.29257e-13
0.137164
0.137164
0.137164
0.137164
0.137164
0.137164
0.137164
0.137164
0.137164
0.137164
0.137164
0.137164
0.137164
0.137164
0.137164
0.137164
0.137164
0.137164
0.137164
0.137164
0.137164
0.137164
0.137164
0.137164
0.137164
0.137164
0.137164
0.137164
0.137164
0.137164
0.137164
0.137164
0.137164
0.137164
0.137164
0.137164
0.137164
0.137164
0.137164
0.137164
0.137164
0.137164
0.137164
0.137164
0.137164
0.137164
0.137164
0.137164
0.137164
0.137164
0.137164
0.137164
0.137164
0.137164
0.137164
0.137164
0.137164
0.137164
0.137164
0.137164
0.137164
0.137164
0.137164
0.137164
0.137164
0.137164
0.137164
0.137164
0.137164
0.137164
0.137164
0.137164
0.137164
0.137164
0.137164
0.137164
0.137164
0.137164
0.137164
0.137164
0.137164
0.137164
0.137164
0.137164
0.137164
0.137164
0.137158
0.137089
0.135832
0.108627
0.0270066
0.00427666
0.00361294
0.00351868
0.00342202
0.00332426
0.00322885
0.00313568
0.00304457
0.00295542
0.00286818
0.00278278
0.00269914
0.00261721
0.00253693
0.00245825
0.0023811
0.00230546
0.00223125
0.00215844
0.00208699
0.00201687
0.00194803
0.00188045
0.00181403
0.00174867
0.00168427
0.0016208
0.00155841
0.00149744
0.00143841
0.00138173
0.00132715
0.00127325
0.00121687
0.00115274
0.00107346
0.000970343
0.000836527
0.000672584
0.000491554
0.00031753
0.000175591
7.97248e-05
2.79676e-05
6.91978e-06
1.05658e-06
8.28248e-08
2.65534e-09
2.73802e-11
4.02302e-13
3.35525e-13
3.36068e-13
3.37105e-13
3.37289e-13
3.35765e-13
3.30457e-13
3.20724e-13
3.07724e-13
2.93369e-13
2.79341e-13
2.66562e-13
2.55163e-13
2.44773e-13
2.34892e-13
2.25126e-13
2.15272e-13
2.05296e-13
1.95271e-13
1.85308e-13
1.75501e-13
1.65899e-13
1.56505e-13
1.47294e-13
1.38225e-13
1.29257e-13
0.137164
0.137164
0.137164
0.137164
0.137164
0.137164
0.137164
0.137164
0.137164
0.137164
0.137164
0.137164
0.137164
0.137164
0.137164
0.137164
0.137164
0.137164
0.137164
0.137164
0.137164
0.137164
0.137164
0.137164
0.137164
0.137164
0.137164
0.137164
0.137164
0.137164
0.137164
0.137164
0.137164
0.137164
0.137164
0.137164
0.137164
0.137164
0.137164
0.137164
0.137164
0.137164
0.137164
0.137164
0.137164
0.137164
0.137164
0.137164
0.137164
0.137164
0.137164
0.137164
0.137164
0.137164
0.137164
0.137164
0.137164
0.137164
0.137164
0.137164
0.137164
0.137164
0.137164
0.137164
0.137164
0.137164
0.137164
0.137164
0.137164
0.137164
0.137164
0.137164
0.137164
0.137164
0.137164
0.137164
0.137164
0.137164
0.137164
0.137164
0.137164
0.137164
0.137164
0.137164
0.137164
0.137163
0.137153
0.137028
0.134614
0.0910655
0.0179166
0.00387791
0.00360051
0.0035071
0.00340934
0.00331186
0.0032168
0.00312393
0.0030331
0.00294423
0.00285725
0.00277209
0.00268868
0.00260698
0.00252691
0.00244844
0.00237149
0.00229604
0.00222201
0.00214938
0.0020781
0.00200815
0.00193948
0.00187205
0.00180579
0.00174058
0.00167632
0.001613
0.00155076
0.00148995
0.00143109
0.00137458
0.00132015
0.00126634
0.00120995
0.00114567
0.00106607
0.000962505
0.00082831
0.000664381
0.000484066
0.000311503
0.000171447
7.73798e-05
2.69388e-05
6.60111e-06
9.95836e-07
7.6946e-08
2.42679e-09
2.46126e-11
3.91992e-13
3.33326e-13
3.33924e-13
3.35121e-13
3.35492e-13
3.34226e-13
3.29314e-13
3.19902e-13
3.07131e-13
2.92955e-13
2.79071e-13
2.66396e-13
2.55063e-13
2.44717e-13
2.34867e-13
2.2512e-13
2.15274e-13
2.053e-13
1.95275e-13
1.85311e-13
1.75503e-13
1.65899e-13
1.56506e-13
1.47294e-13
1.38225e-13
1.29257e-13
0.137164
0.137164
0.137164
0.137164
0.137164
0.137164
0.137164
0.137164
0.137164
0.137164
0.137164
0.137164
0.137164
0.137164
0.137164
0.137164
0.137164
0.137164
0.137164
0.137164
0.137164
0.137164
0.137164
0.137164
0.137164
0.137164
0.137164
0.137164
0.137164
0.137164
0.137164
0.137164
0.137164
0.137164
0.137164
0.137164
0.137164
0.137164
0.137164
0.137164
0.137164
0.137164
0.137164
0.137164
0.137164
0.137164
0.137164
0.137164
0.137164
0.137164
0.137164
0.137164
0.137164
0.137164
0.137164
0.137164
0.137164
0.137164
0.137164
0.137164
0.137164
0.137164
0.137164
0.137164
0.137164
0.137164
0.137164
0.137164
0.137164
0.137164
0.137164
0.137164
0.137164
0.137164
0.137164
0.137164
0.137164
0.137164
0.137164
0.137164
0.137164
0.137164
0.137164
0.137164
0.137164
0.137162
0.137144
0.136908
0.132112
0.070547
0.0112147
0.00373115
0.00358849
0.00349478
0.00339634
0.00329921
0.00320449