/*--------------------------------*- C++ -*----------------------------------*\
  =========                 |
  \\      /  F ield         | OpenFOAM: The Open Source CFD Toolbox
   \\    /   O peration     | Website:  https://openfoam.org
    \\  /    A nd           | Version:  13
     \\/     M anipulation  |
\*---------------------------------------------------------------------------*/
FoamFile
{
    format      ascii;
    class       volScalarField;
    location    "0.0017";
    object      H2O;
}
// * * * * * * * * * * * * * * * * * * * * * * * * * * * * * * * * * * * * * //

dimensions      [];

internalField   nonuniform List<scalar> 
33334
(
0.112295
0.112295
0.112295
0.112295
0.112295
0.112295
0.112295
0.112295
0.112295
0.112295
0.112295
0.112295
0.112295
0.112295
0.112295
0.112295
0.112295
0.112295
0.112295
0.112295
0.112295
0.112295
0.112295
0.112295
0.112295
0.112295
0.112295
0.112295
0.112295
0.112295
0.112295
0.112295
0.112295
0.112295
0.112295
0.112295
0.112295
0.112295
0.112295
0.112295
0.112295
0.112295
0.112295
0.112295
0.112295
0.112295
0.112295
0.112295
0.112295
0.112295
0.112295
0.112295
0.112295
0.112295
0.112295
0.112295
0.112295
0.112295
0.112295
0.112295
0.112295
0.112295
0.112295
0.112295
0.112295
0.112295
0.112295
0.112295
0.112295
0.112295
0.112295
0.112295
0.112295
0.112295
0.112295
0.112295
0.112295
0.112295
0.112295
0.112295
0.112295
0.112295
0.112295
0.112295
0.112295
0.112295
0.112295
0.112294
0.112285
0.112115
0.107141
0.0482748
0.00682427
0.00298907
0.00289701
0.00281998
0.00273932
0.00266004
0.00258274
0.00250718
0.00243331
0.0023611
0.00229051
0.00222142
0.00215375
0.00208746
0.0020225
0.00195882
0.00189637
0.00183511
0.00177501
0.00171603
0.00165815
0.00160132
0.00154548
0.00149054
0.00143641
0.00138306
0.00133056
0.00127919
0.00122936
0.00118142
0.00113531
0.00109005
0.00104331
0.000990997
0.000927146
0.000844368
0.000736057
0.000600899
0.000447817
0.000296285
0.000168704
7.94253e-05
2.91384e-05
7.60463e-06
1.2331e-06
1.03008e-07
3.50524e-09
3.78917e-11
3.81554e-13
2.82565e-13
2.82268e-13
2.81973e-13
2.80985e-13
2.78224e-13
2.72664e-13
2.63982e-13
2.5288e-13
2.40769e-13
2.29025e-13
2.18407e-13
2.08989e-13
2.00435e-13
1.92321e-13
1.84317e-13
1.76248e-13
1.68082e-13
1.59876e-13
1.51721e-13
1.43692e-13
1.3583e-13
1.28139e-13
1.20597e-13
1.13171e-13
1.05828e-13
0.112295
0.112295
0.112295
0.112295
0.112295
0.112295
0.112295
0.112295
0.112295
0.112295
0.112295
0.112295
0.112295
0.112295
0.112295
0.112295
0.112295
0.112295
0.112295
0.112295
0.112295
0.112295
0.112295
0.112295
0.112295
0.112295
0.112295
0.112295
0.112295
0.112295
0.112295
0.112295
0.112295
0.112295
0.112295
0.112295
0.112295
0.112295
0.112295
0.112295
0.112295
0.112295
0.112295
0.112295
0.112295
0.112295
0.112295
0.112295
0.112295
0.112295
0.112295
0.112295
0.112295
0.112295
0.112295
0.112295
0.112295
0.112295
0.112295
0.112295
0.112295
0.112295
0.112295
0.112295
0.112295
0.112295
0.112295
0.112295
0.112295
0.112295
0.112295
0.112295
0.112295
0.112295
0.112295
0.112295
0.112295
0.112295
0.112295
0.112295
0.112295
0.112295
0.112295
0.112295
0.112295
0.112295
0.112295
0.112294
0.112286
0.112128
0.107517
0.0498155
0.00714666
0.0029903
0.00289569
0.00281882
0.00273829
0.00265916
0.00258206
0.00250675
0.00243314
0.00236112
0.0022906
0.00222152
0.00215387
0.00208759
0.00202264
0.00195897
0.00189653
0.00183527
0.00177518
0.00171621
0.00165833
0.0016015
0.00154566
0.00149073
0.0014366
0.00138325
0.00133075
0.00127938
0.00122954
0.0011816
0.00113548
0.00109023
0.00104349
0.000991215
0.000927422
0.000844724
0.00073649
0.000601364
0.000448236
0.000296588
0.000168876
7.95003e-05
2.91612e-05
7.60784e-06
1.23274e-06
1.02921e-07
3.50335e-09
3.79199e-11
3.81812e-13
2.82558e-13
2.82261e-13
2.81967e-13
2.8098e-13
2.78221e-13
2.72662e-13
2.63982e-13
2.52881e-13
2.4077e-13
2.29025e-13
2.18408e-13
2.08989e-13
2.00435e-13
1.92321e-13
1.84317e-13
1.76248e-13
1.68081e-13
1.59876e-13
1.5172e-13
1.43691e-13
1.35829e-13
1.28138e-13
1.20596e-13
1.1317e-13
1.05828e-13
0.112295
0.112295
0.112295
0.112295
0.112295
0.112295
0.112295
0.112295
0.112295
0.112295
0.112295
0.112295
0.112295
0.112295
0.112295
0.112295
0.112295
0.112295
0.112295
0.112295
0.112295
0.112295
0.112295
0.112295
0.112295
0.112295
0.112295
0.112295
0.112295
0.112295
0.112295
0.112295
0.112295
0.112295
0.112295
0.112295
0.112295
0.112295
0.112295
0.112295
0.112295
0.112295
0.112295
0.112295
0.112295
0.112295
0.112295
0.112295
0.112295
0.112295
0.112295
0.112295
0.112295
0.112295
0.112295
0.112295
0.112295
0.112295
0.112295
0.112295
0.112295
0.112295
0.112295
0.112295
0.112295
0.112295
0.112295
0.112295
0.112295
0.112295
0.112295
0.112295
0.112295
0.112295
0.112295
0.112295
0.112295
0.112295
0.112295
0.112295
0.112295
0.112295
0.112295
0.112295
0.112295
0.112295
0.112295
0.112294
0.112285
0.112111
0.107045
0.0481388
0.0068078
0.00298565
0.00289368
0.00281693
0.00273663
0.00265775
0.00258084
0.00250566
0.0024321
0.00236008
0.00228956
0.00222051
0.00215288
0.00208663
0.0020217
0.00195805
0.00189563
0.0018344
0.00177433
0.00171538
0.00165752
0.00160072
0.0015449
0.00148998
0.00143588
0.00138254
0.00133007
0.00127872
0.00122891
0.00118099
0.0011349
0.00108966
0.00104293
0.000990652
0.00092685
0.00084414
0.0007359
0.000600793
0.000447734
0.000296214
0.000168653
7.93945e-05
2.91185e-05
7.59428e-06
1.23016e-06
1.02723e-07
3.50022e-09
3.79577e-11
3.82159e-13
2.82536e-13
2.82243e-13
2.81952e-13
2.80967e-13
2.7821e-13
2.72654e-13
2.63976e-13
2.52877e-13
2.40767e-13
2.29022e-13
2.18404e-13
2.08985e-13
2.0043e-13
1.92316e-13
1.84312e-13
1.76244e-13
1.68078e-13
1.59872e-13
1.51717e-13
1.43688e-13
1.35826e-13
1.28135e-13
1.20593e-13
1.13168e-13
1.05825e-13
0.112295
0.112295
0.112295
0.112295
0.112295
0.112295
0.112295
0.112295
0.112295
0.112295
0.112295
0.112295
0.112295
0.112295
0.112295
0.112295
0.112295
0.112295
0.112295
0.112295
0.112295
0.112295
0.112295
0.112295
0.112295
0.112295
0.112295
0.112295
0.112295
0.112295
0.112295
0.112295
0.112295
0.112295
0.112295
0.112295
0.112295
0.112295
0.112295
0.112295
0.112295
0.112295
0.112295
0.112295
0.112295
0.112295
0.112295
0.112295
0.112295
0.112295
0.112295
0.112295
0.112295
0.112295
0.112295
0.112295
0.112295
0.112295
0.112295
0.112295
0.112295
0.112295
0.112295
0.112295
0.112295
0.112295
0.112295
0.112295
0.112295
0.112295
0.112295
0.112295
0.112295
0.112295
0.112295
0.112295
0.112295
0.112295
0.112295
0.112295
0.112295
0.112295
0.112295
0.112295
0.112295
0.112295
0.112295
0.112294
0.112284
0.112088
0.106396
0.045572
0.00631258
0.00297948
0.00289101
0.00281419
0.00273396
0.00265517
0.00257829
0.00250311
0.00242955
0.00235756
0.0022871
0.00221811
0.00215054
0.00208435
0.00201948
0.00195588
0.00189352
0.00183234
0.00177232
0.00171343
0.00165562
0.00159887
0.0015431
0.00148824
0.00143418
0.0013809
0.00132848
0.00127718
0.00122742
0.00117956
0.00113351
0.00108832
0.00104163
0.000989364
0.000925569
0.000842867
0.00073465
0.000599619
0.000446722
0.000295446
0.000168157
7.91281e-05
2.90057e-05
7.56131e-06
1.22478e-06
1.02337e-07
3.49189e-09
3.79366e-11
3.82285e-13
2.82496e-13
2.82213e-13
2.8193e-13
2.80951e-13
2.78197e-13
2.72642e-13
2.63966e-13
2.52869e-13
2.40759e-13
2.29014e-13
2.18396e-13
2.08977e-13
2.00423e-13
1.92309e-13
1.84306e-13
1.76238e-13
1.68072e-13
1.59867e-13
1.51712e-13
1.43684e-13
1.35822e-13
1.28131e-13
1.2059e-13
1.13165e-13
1.05822e-13
0.112295
0.112295
0.112295
0.112295
0.112295
0.112295
0.112295
0.112295
0.112295
0.112295
0.112295
0.112295
0.112295
0.112295
0.112295
0.112295
0.112295
0.112295
0.112295
0.112295
0.112295
0.112295
0.112295
0.112295
0.112295
0.112295
0.112295
0.112295
0.112295
0.112295
0.112295
0.112295
0.112295
0.112295
0.112295
0.112295
0.112295
0.112295
0.112295
0.112295
0.112295
0.112295
0.112295
0.112295
0.112295
0.112295
0.112295
0.112295
0.112295
0.112295
0.112295
0.112295
0.112295
0.112295
0.112295
0.112295
0.112295
0.112295
0.112295
0.112295
0.112295
0.112295
0.112295
0.112295
0.112295
0.112295
0.112295
0.112295
0.112295
0.112295
0.112295
0.112295
0.112295
0.112295
0.112295
0.112295
0.112295
0.112295
0.112295
0.112295
0.112295
0.112295
0.112295
0.112295
0.112295
0.112295
0.112295
0.112294
0.112282
0.112046
0.105277
0.0421347
0.00570055
0.0029724
0.00288733
0.00281024
0.00272997
0.00265121
0.00257438
0.00249925
0.00242577
0.00235387
0.0022835
0.00221461
0.00214713
0.00208102
0.00201623
0.00195272
0.00189044
0.00182934
0.0017694
0.00171058
0.00165285
0.00159618
0.00154048
0.00148569
0.00143171
0.0013785
0.00132616
0.00127493
0.00122525
0.00117746
0.00113149
0.00108636
0.00103972
0.000987495
0.00092372
0.000841033
0.000732857
0.000597939
0.000445265
0.000294318
0.000167399
7.87027e-05
2.88225e-05
7.50807e-06
1.21586e-06
1.0163e-07
3.47212e-09
3.77918e-11
3.82065e-13
2.82437e-13
2.8217e-13
2.819e-13
2.80934e-13
2.78187e-13
2.72634e-13
2.63958e-13
2.52861e-13
2.40752e-13
2.29008e-13
2.1839e-13
2.08971e-13
2.00417e-13
1.92304e-13
1.84301e-13
1.76233e-13
1.68068e-13
1.59863e-13
1.51709e-13
1.43681e-13
1.35819e-13
1.28129e-13
1.20588e-13
1.13163e-13
1.05821e-13
0.112295
0.112295
0.112295
0.112295
0.112295
0.112295
0.112295
0.112295
0.112295
0.112295
0.112295
0.112295
0.112295
0.112295
0.112295
0.112295
0.112295
0.112295
0.112295
0.112295
0.112295
0.112295
0.112295
0.112295
0.112295
0.112295
0.112295
0.112295
0.112295
0.112295
0.112295
0.112295
0.112295
0.112295
0.112295
0.112295
0.112295
0.112295
0.112295
0.112295
0.112295
0.112295
0.112295
0.112295
0.112295
0.112295
0.112295
0.112295
0.112295
0.112295
0.112295
0.112295
0.112295
0.112295
0.112295
0.112295
0.112295
0.112295
0.112295
0.112295
0.112295
0.112295
0.112295
0.112295
0.112295
0.112295
0.112295
0.112295
0.112295
0.112295
0.112295
0.112295
0.112295
0.112295
0.112295
0.112295
0.112295
0.112295
0.112295
0.112295
0.112295
0.112295
0.112295
0.112295
0.112295
0.112295
0.112295
0.112294
0.112279
0.111987
0.103624
0.0381078
0.0050725
0.00296471
0.00288249
0.00280505
0.00272478
0.00264615
0.00256943
0.00249443
0.00242108
0.0023493
0.00227906
0.00221028
0.00214291
0.00207691
0.00201223
0.00194882
0.00188664
0.00182564
0.00176579
0.00170707
0.00164944
0.00159285
0.00153725
0.00148255
0.00142866
0.00137554
0.00132328
0.00127215
0.00122256
0.00117486
0.00112899
0.00108394
0.00103736
0.000985172
0.000921405
0.000838713
0.000730558
0.000595751
0.00044334
0.000292804
0.000166368
7.81222e-05
2.8572e-05
7.43394e-06
1.20284e-06
1.00512e-07
3.43638e-09
3.74596e-11
3.81326e-13
2.82346e-13
2.82106e-13
2.81857e-13
2.80913e-13
2.7818e-13
2.72631e-13
2.63955e-13
2.52858e-13
2.40749e-13
2.29004e-13
2.18386e-13
2.08968e-13
2.00414e-13
1.92301e-13
1.84299e-13
1.76231e-13
1.68066e-13
1.59862e-13
1.51708e-13
1.4368e-13
1.35818e-13
1.28128e-13
1.20587e-13
1.13162e-13
1.0582e-13
0.112295
0.112295
0.112295
0.112295
0.112295
0.112295
0.112295
0.112295
0.112295
0.112295
0.112295
0.112295
0.112295
0.112295
0.112295
0.112295
0.112295
0.112295
0.112295
0.112295
0.112295
0.112295
0.112295
0.112295
0.112295
0.112295
0.112295
0.112295
0.112295
0.112295
0.112295
0.112295
0.112295
0.112295
0.112295
0.112295
0.112295
0.112295
0.112295
0.112295
0.112295
0.112295
0.112295
0.112295
0.112295
0.112295
0.112295
0.112295
0.112295
0.112295
0.112295
0.112295
0.112295
0.112295
0.112295
0.112295
0.112295
0.112295
0.112295
0.112295
0.112295
0.112295
0.112295
0.112295
0.112295
0.112295
0.112295
0.112295
0.112295
0.112295
0.112295
0.112295
0.112295
0.112295
0.112295
0.112295
0.112295
0.112295
0.112295
0.112295
0.112295
0.112295
0.112295
0.112295
0.112295
0.112295
0.112295
0.112294
0.112275
0.111896
0.101244
0.0336977
0.00448578
0.00295675
0.00287677
0.00279895
0.00271875
0.0026403
0.00256375
0.00248891
0.0024157
0.00234408
0.00227396
0.00220532
0.00213808
0.00207221
0.00200765
0.00194435
0.00188229
0.0018214
0.00176167
0.00170305
0.00164553
0.00158905
0.00153355
0.00147895
0.00142516
0.00137214
0.00131998
0.00126895
0.00121946
0.00117187
0.0011261
0.00108114
0.00103463
0.000982463
0.000918683
0.000835953
0.000727786
0.000593079
0.00044096
0.000290917
0.000165081
7.73976e-05
2.82576e-05
7.33907e-06
1.18562e-06
9.89619e-08
3.38296e-09
3.69102e-11
3.7988e-13
2.82205e-13
2.82004e-13
2.81786e-13
2.80876e-13
2.78167e-13
2.72628e-13
2.63955e-13
2.52859e-13
2.40749e-13
2.29004e-13
2.18386e-13
2.08967e-13
2.00413e-13
1.92301e-13
1.84298e-13
1.76231e-13
1.68066e-13
1.59862e-13
1.51707e-13
1.43679e-13
1.35818e-13
1.28128e-13
1.20587e-13
1.13162e-13
1.0582e-13
0.112295
0.112295
0.112295
0.112295
0.112295
0.112295
0.112295
0.112295
0.112295
0.112295
0.112295
0.112295
0.112295
0.112295
0.112295
0.112295
0.112295
0.112295
0.112295
0.112295
0.112295
0.112295
0.112295
0.112295
0.112295
0.112295
0.112295
0.112295
0.112295
0.112295
0.112295
0.112295
0.112295
0.112295
0.112295
0.112295
0.112295
0.112295
0.112295
0.112295
0.112295
0.112295
0.112295
0.112295
0.112295
0.112295
0.112295
0.112295
0.112295
0.112295
0.112295
0.112295
0.112295
0.112295
0.112295
0.112295
0.112295
0.112295
0.112295
0.112295
0.112295
0.112295
0.112295
0.112295
0.112295
0.112295
0.112295
0.112295
0.112295
0.112295
0.112295
0.112295
0.112295
0.112295
0.112295
0.112295
0.112295
0.112295
0.112295
0.112295
0.112295
0.112295
0.112295
0.112295
0.112295
0.112295
0.112295
0.112293
0.112268
0.111753
0.0977089
0.0290051
0.0039834
0.00294873
0.00287039
0.00279214
0.00271207
0.00263383
0.00255746
0.00248279
0.00240975
0.00233829
0.00226833
0.00219983
0.00213273
0.002067
0.00200257
0.00193941
0.00187747
0.00181671
0.00175709
0.00169859
0.00164118
0.00158482
0.00152943
0.00147494
0.00142126
0.00136835
0.0013163
0.00126538
0.001216
0.00116853
0.00112286
0.001078
0.00103155
0.000979401
0.000915588
0.000832791
0.000724581
0.000589961
0.000438165
0.000288692
0.000163559
7.65394e-05
2.78826e-05
7.22423e-06
1.16433e-06
9.69883e-08
3.31166e-09
3.61317e-11
3.77616e-13
2.8199e-13
2.81849e-13
2.81671e-13
2.80808e-13
2.78139e-13
2.72618e-13
2.63953e-13
2.5286e-13
2.4075e-13
2.29005e-13
2.18386e-13
2.08967e-13
2.00413e-13
1.923e-13
1.84298e-13
1.76231e-13
1.68066e-13
1.59862e-13
1.51707e-13
1.43679e-13
1.35818e-13
1.28128e-13
1.20587e-13
1.13162e-13
1.0582e-13
0.112295
0.112295
0.112295
0.112295
0.112295
0.112295
0.112295
0.112295
0.112295
0.112295
0.112295
0.112295
0.112295
0.112295
0.112295
0.112295
0.112295
0.112295
0.112295
0.112295
0.112295
0.112295
0.112295
0.112295
0.112295
0.112295
0.112295
0.112295
0.112295
0.112295
0.112295
0.112295
0.112295
0.112295
0.112295
0.112295
0.112295
0.112295
0.112295
0.112295
0.112295
0.112295
0.112295
0.112295
0.112295
0.112295
0.112295
0.112295
0.112295
0.112295
0.112295
0.112295
0.112295
0.112295
0.112295
0.112295
0.112295
0.112295
0.112295
0.112295
0.112295
0.112295
0.112295
0.112295
0.112295
0.112295
0.112295
0.112295
0.112295
0.112295
0.112295
0.112295
0.112295
0.112295
0.112295
0.112295
0.112295
0.112295
0.112295
0.112295
0.112295
0.112295
0.112295
0.112295
0.112295
0.112295
0.112295
0.112292
0.112258
0.111531
0.0926155
0.0241746
0.00359771
0.00294068
0.00286346
0.00278474
0.00270482
0.00262681
0.00255064
0.00247616
0.0024033
0.002332
0.00226221
0.00219386
0.00212692
0.00206134
0.00199705
0.00193403
0.00187223
0.0018116
0.00175211
0.00169374
0.00163645
0.00158021
0.00152494
0.00147057
0.001417
0.0013642
0.00131226
0.00126146
0.00121221
0.00116485
0.00111931
0.00107454
0.00102815
0.00097601
0.000912145
0.000829253
0.000720975
0.000586436
0.00043499
0.000286156
0.000161821
7.55546e-05
2.74494e-05
7.09026e-06
1.13912e-06
9.46048e-08
3.22268e-09
3.51191e-11
3.74443e-13
2.81669e-13
2.81619e-13
2.81498e-13
2.80696e-13
2.78082e-13
2.72593e-13
2.63944e-13
2.52859e-13
2.40752e-13
2.29007e-13
2.18388e-13
2.08968e-13
2.00414e-13
1.92301e-13
1.84298e-13
1.76231e-13
1.68066e-13
1.59862e-13
1.51707e-13
1.43679e-13
1.35818e-13
1.28128e-13
1.20587e-13
1.13162e-13
1.0582e-13
0.112295
0.112295
0.112295
0.112295
0.112295
0.112295
0.112295
0.112295
0.112295
0.112295
0.112295
0.112295
0.112295
0.112295
0.112295
0.112295
0.112295
0.112295
0.112295
0.112295
0.112295
0.112295
0.112295
0.112295
0.112295
0.112295
0.112295
0.112295
0.112295
0.112295
0.112295
0.112295
0.112295
0.112295
0.112295
0.112295
0.112295
0.112295
0.112295
0.112295
0.112295
0.112295
0.112295
0.112295
0.112295
0.112295
0.112295
0.112295
0.112295
0.112295
0.112295
0.112295
0.112295
0.112295
0.112295
0.112295
0.112295
0.112295
0.112295
0.112295
0.112295
0.112295
0.112295
0.112295
0.112295
0.112295
0.112295
0.112295
0.112295
0.112295
0.112295
0.112295
0.112295
0.112295
0.112295
0.112295
0.112295
0.112295
0.112295
0.112295
0.112295
0.112295
0.112295
0.112295
0.112295
0.112295
0.112295
0.112291
0.112243
0.111167
0.0854115
0.0194353
0.00332554
0.00293252
0.00285603
0.00277682
0.00269708
0.0026193
0.00254334
0.00246906
0.00239639
0.00232528
0.00225566
0.00218749
0.00212071
0.00205528
0.00199115
0.00192828
0.00186662
0.00180613
0.00174678
0.00168854
0.00163138
0.00157526
0.00152011
0.00146586
0.00141241
0.00135973
0.00130791
0.00125723
0.0012081
0.00116088
0.00111545
0.00107078
0.00102445
0.000972306
0.000908369
0.000825356
0.000716983
0.000582517
0.00043145
0.000283321
0.000159871
7.44463e-05
2.69597e-05
6.93772e-06
1.11011e-06
9.18165e-08
3.11621e-09
3.38758e-11
3.70314e-13
2.8121e-13
2.8127e-13
2.81237e-13
2.80525e-13
2.77982e-13
2.72539e-13
2.63916e-13
2.5285e-13
2.40752e-13
2.29009e-13
2.1839e-13
2.08969e-13
2.00415e-13
1.92301e-13
1.84298e-13
1.76231e-13
1.68066e-13
1.59862e-13
1.51708e-13
1.4368e-13
1.35819e-13
1.28128e-13
1.20588e-13
1.13162e-13
1.05821e-13
0.112295
0.112295
0.112295
0.112295
0.112295
0.112295
0.112295
0.112295
0.112295
0.112295
0.112295
0.112295
0.112295
0.112295
0.112295
0.112295
0.112295
0.112295
0.112295
0.112295
0.112295
0.112295
0.112295
0.112295
0.112295
0.112295
0.112295
0.112295
0.112295
0.112295
0.112295
0.112295
0.112295
0.112295
0.112295
0.112295
0.112295
0.112295
0.112295
0.112295
0.112295
0.112295
0.112295
0.112295
0.112295
0.112295
0.112295
0.112295
0.112295
0.112295
0.112295
0.112295
0.112295
0.112295
0.112295
0.112295
0.112295
0.112295
0.112295
0.112295
0.112295
0.112295
0.112295
0.112295
0.112295
0.112295
0.112295
0.112295
0.112295
0.112295
0.112295
0.112295
0.112295
0.112295
0.112295
0.112295
0.112295
0.112295
0.112295
0.112295
0.112295
0.112295
0.112295
0.112295
0.112295
0.112295
0.112295
0.11229
0.112217
0.110564
0.0760163
0.0149781
0.00315535
0.00292421
0.00284812
0.00276844
0.00268892
0.00261139
0.00253565
0.00246157
0.0023891
0.00231818
0.00224875
0.00218075
0.00211415
0.00204888
0.00198491
0.00192219
0.00186067
0.00180033
0.00174112
0.00168302
0.00162599
0.00157
0.00151498
0.00146085
0.00140752
0.00135496
0.00130326
0.00125271
0.00120371
0.00115661
0.00111131
0.00106674
0.00102045
0.000968297
0.000904265
0.000821101
0.000712608
0.000578206
0.000427544
0.000280185
0.00015771
7.32155e-05
2.64144e-05
6.76698e-06
1.07736e-06
8.86325e-08
2.9927e-09
3.24066e-11
3.6526e-13
2.80605e-13
2.80755e-13
2.80843e-13
2.80261e-13
2.77826e-13
2.72444e-13
2.63859e-13
2.52823e-13
2.40745e-13
2.2901e-13
2.18392e-13
2.08972e-13
2.00417e-13
1.92302e-13
1.84299e-13
1.76231e-13
1.68066e-13
1.59862e-13
1.51708e-13
1.4368e-13
1.35819e-13
1.28129e-13
1.20588e-13
1.13162e-13
1.05821e-13
0.112295
0.112295
0.112295
0.112295
0.112295
0.112295
0.112295
0.112295
0.112295
0.112295
0.112295
0.112295
0.112295
0.112295
0.112295
0.112295
0.112295
0.112295
0.112295
0.112295
0.112295
0.112295
0.112295
0.112295
0.112295
0.112295
0.112295
0.112295
0.112295
0.112295
0.112295
0.112295
0.112295
0.112295
0.112295
0.112295
0.112295
0.112295
0.112295
0.112295
0.112295
0.112295
0.112295
0.112295
0.112295
0.112295
0.112295
0.112295
0.112295
0.112295
0.112295
0.112295
0.112295
0.112295
0.112295
0.112295
0.112295
0.112295
0.112295
0.112295
0.112295
0.112295
0.112295
0.112295
0.112295
0.112295
0.112295
0.112295
0.112295
0.112295
0.112295
0.112295
0.112295
0.112295
0.112295
0.112295
0.112295
0.112295
0.112295
0.112295
0.112295
0.112295
0.112295
0.112295
0.112295
0.112295
0.112294
0.112287
0.112174
0.109515
0.0647742
0.0110321
0.00305891
0.00291579
0.00283971
0.00275967
0.00268041
0.00260312
0.00252761
0.00245375
0.00238148
0.00231076
0.00224151
0.0021737
0.00210726
0.00204217
0.00197836
0.00191579
0.00185443
0.00179423
0.00173516
0.0016772
0.0016203
0.00156445
0.00150956
0.00145555
0.00140234
0.0013499
0.00129833
0.0012479
0.00119903
0.00115207
0.00110689
0.00106241
0.00101617
0.000963984
0.000899833
0.000816487
0.000707844
0.000573498
0.000423268
0.000276746
0.000155337
7.18624e-05
2.58139e-05
6.57842e-06
1.04102e-06
8.50708e-08
2.8532e-09
3.07226e-11
3.5935e-13
2.79828e-13
2.80049e-13
2.80288e-13
2.79851e-13
2.77584e-13
2.72297e-13
2.6376e-13
2.52765e-13
2.4072e-13
2.29003e-13
2.18393e-13
2.08974e-13
2.00419e-13
1.92304e-13
1.843e-13
1.76232e-13
1.68067e-13
1.59862e-13
1.51708e-13
1.4368e-13
1.35819e-13
1.28129e-13
1.20588e-13
1.13163e-13
1.05821e-13
0.112295
0.112295
0.112295
0.112295
0.112295
0.112295
0.112295
0.112295
0.112295
0.112295
0.112295
0.112295
0.112295
0.112295
0.112295
0.112295
0.112295
0.112295
0.112295
0.112295
0.112295
0.112295
0.112295
0.112295
0.112295
0.112295
0.112295
0.112295
0.112295
0.112295
0.112295
0.112295
0.112295
0.112295
0.112295
0.112295
0.112295
0.112295
0.112295
0.112295
0.112295
0.112295
0.112295
0.112295
0.112295
0.112295
0.112295
0.112295
0.112295
0.112295
0.112295
0.112295
0.112295
0.112295
0.112295
0.112295
0.112295
0.112295
0.112295
0.112295
0.112295
0.112295
0.112295
0.112295
0.112295
0.112295
0.112295
0.112295
0.112295
0.112295
0.112295
0.112295
0.112295
0.112295
0.112295
0.112295
0.112295
0.112295
0.112295
0.112295
0.112295
0.112295
0.112295
0.112295
0.112295
0.112295
0.112294
0.112282
0.112099
0.107651
0.0529095
0.00789188
0.00300872
0.00290726
0.00283079
0.00275056
0.00267157
0.00259454
0.00251925
0.00244561
0.00237356
0.00230303
0.00223398
0.00216635
0.00210009
0.00203516
0.00197151
0.00190911
0.0018479
0.00178784
0.00172892
0.00167109
0.00161434
0.00155861
0.00150385
0.00144997
0.00139688
0.00134456
0.00129311
0.00124281
0.00119408
0.00114725
0.0011022
0.00105781
0.00101161
0.000959369
0.000895072
0.000811511
0.000702688
0.000568388
0.000418618
0.000273002
0.000152752
7.0388e-05
2.51595e-05
6.37275e-06
1.00128e-06
8.11607e-08
2.69928e-09
2.88465e-11
3.52694e-13
2.78855e-13
2.79137e-13
2.79537e-13
2.79253e-13
2.77213e-13
2.72076e-13
2.63608e-13
2.52662e-13
2.40666e-13
2.28981e-13
2.18386e-13
2.08975e-13
2.00422e-13
1.92307e-13
1.84302e-13
1.76233e-13
1.68067e-13
1.59863e-13
1.51708e-13
1.4368e-13
1.35819e-13
1.28129e-13
1.20588e-13
1.13163e-13
1.05821e-13
0.112295
0.112295
0.112295
0.112295
0.112295
0.112295
0.112295
0.112295
0.112295
0.112295
0.112295
0.112295
0.112295
0.112295
0.112295
0.112295
0.112295
0.112295
0.112295
0.112295
0.112295
0.112295
0.112295
0.112295
0.112295
0.112295
0.112295
0.112295
0.112295
0.112295
0.112295
0.112295
0.112295
0.112295
0.112295
0.112295
0.112295
0.112295
0.112295
0.112295
0.112295
0.112295
0.112295
0.112295
0.112295
0.112295
0.112295
0.112295
0.112295
0.112295
0.112295
0.112295
0.112295
0.112295
0.112295
0.112295
0.112295
0.112295
0.112295
0.112295
0.112295
0.112295
0.112295
0.112295
0.112295
0.112295
0.112295
0.112295
0.112295
0.112295
0.112295
0.112295
0.112295
0.112295
0.112295
0.112295
0.112295
0.112295
0.112295
0.112295
0.112295
0.112295
0.112295
0.112295
0.112295
0.112295
0.112293
0.112274
0.111962
0.104401
0.0414845
0.00565818
0.00298368
0.00289861
0.00282141
0.00274115
0.00266245
0.00258568
0.00251062
0.00243719
0.00236535
0.00229502
0.00222616
0.00215872
0.00209264
0.00202788
0.0019644
0.00190215
0.00184109
0.00178119
0.00172241
0.00166472
0.0016081
0.0015525
0.00149787
0.00144411
0.00139115
0.00133895
0.00128762
0.00123745
0.00118885
0.00114216
0.00109723
0.00105294
0.00100676
0.000954454
0.000889984
0.000806172
0.000697138
0.000562874
0.000413594
0.000268954
0.000149957
6.8795e-05
2.44531e-05
6.15102e-06
9.58455e-07
7.69469e-08
2.53302e-09
2.68095e-11
3.45398e-13
2.77674e-13
2.78013e-13
2.78571e-13
2.78439e-13
2.76663e-13
2.71741e-13
2.63384e-13
2.52503e-13
2.40568e-13
2.28931e-13
2.18365e-13
2.08968e-13
2.00422e-13
1.9231e-13
1.84305e-13
1.76235e-13
1.68069e-13
1.59863e-13
1.51709e-13
1.4368e-13
1.35819e-13
1.28129e-13
1.20588e-13
1.13163e-13
1.05821e-13
0.112295
0.112295
0.112295
0.112295
0.112295
0.112295
0.112295
0.112295
0.112295
0.112295
0.112295
0.112295
0.112295
0.112295
0.112295
0.112295
0.112295
0.112295
0.112295
0.112295
0.112295
0.112295
0.112295
0.112295
0.112295
0.112295
0.112295
0.112295
0.112295
0.112295
0.112295
0.112295
0.112295
0.112295
0.112295
0.112295
0.112295
0.112295
0.112295
0.112295
0.112295
0.112295
0.112295
0.112295
0.112295
0.112295
0.112295
0.112295
0.112295
0.112295
0.112295
0.112295
0.112295
0.112295
0.112295
0.112295
0.112295
0.112295
0.112295
0.112295
0.112295
0.112295
0.112295
0.112295
0.112295
0.112295
0.112295
0.112295
0.112295
0.112295
0.112295
0.112295
0.112295
0.112295
0.112295
0.112295
0.112295
0.112295
0.112295
0.112295
0.112295
0.112295
0.112295
0.112295
0.112295
0.112295
0.112292
0.11226
0.111704
0.0986698
0.0311503
0.00424583
0.00296905
0.00288979
0.00281166
0.00273147
0.00265307
0.00257654
0.00250171
0.00242851
0.00235688
0.00228675
0.00221809
0.00215083
0.00208493
0.00202034
0.00195702
0.00189493
0.00183402
0.00177427
0.00171563
0.00165808
0.0016016
0.00154613
0.00149163
0.00143799
0.00138515
0.00133307
0.00128187
0.00123182
0.00118336
0.00113681
0.00109201
0.0010478
0.00100163
0.000949243
0.00088457
0.000800472
0.000691194
0.000556957
0.000408197
0.000264605
0.000146956
6.70872e-05
2.36977e-05
5.91463e-06
9.12891e-07
7.24785e-08
2.35697e-09
2.4651e-11
3.37574e-13
2.76286e-13
2.7668e-13
2.77389e-13
2.77395e-13
2.75898e-13
2.71244e-13
2.63055e-13
2.52269e-13
2.40411e-13
2.2884e-13
2.18317e-13
2.08946e-13
2.00415e-13
1.9231e-13
1.84308e-13
1.76238e-13
1.68071e-13
1.59864e-13
1.51709e-13
1.43681e-13
1.35819e-13
1.28129e-13
1.20588e-13
1.13163e-13
1.05821e-13
0.112295
0.112295
0.112295
0.112295
0.112295
0.112295
0.112295
0.112295
0.112295
0.112295
0.112295
0.112295
0.112295
0.112295
0.112295
0.112295
0.112295
0.112295
0.112295
0.112295
0.112295
0.112295
0.112295
0.112295
0.112295
0.112295
0.112295
0.112295
0.112295
0.112295
0.112295
0.112295
0.112295
0.112295
0.112295
0.112295
0.112295
0.112295
0.112295
0.112295
0.112295
0.112295
0.112295
0.112295
0.112295
0.112295
0.112295
0.112295
0.112295
0.112295
0.112295
0.112295
0.112295
0.112295
0.112295
0.112295
0.112295
0.112295
0.112295
0.112295
0.112295
0.112295
0.112295
0.112295
0.112295
0.112295
0.112295
0.112295
0.112295
0.112295
0.112295
0.112295
0.112295
0.112295
0.112295
0.112295
0.112295
0.112295
0.112295
0.112295
0.112295
0.112295
0.112295
0.112295
0.112295
0.112295
0.11229
0.112233
0.111205
0.088932
0.0221101
0.00350126
0.00295788
0.00288071
0.00280158
0.00272154
0.00264343
0.00256716
0.00249256
0.00241958
0.00234816
0.00227824
0.00220976
0.00214269
0.00207696
0.00201254
0.00194939
0.00188746
0.0018267
0.00176709
0.0017086
0.00165119
0.00159484
0.00153951
0.00148513
0.00143162
0.0013789
0.00132694
0.00127585
0.00122594
0.00117762
0.00113121
0.00108652
0.0010424
0.000996237
0.00094374
0.000878835
0.000794411
0.000684857
0.000550639
0.000402431
0.000259959
0.000143755
6.527e-05
2.28968e-05
5.66516e-06
8.65011e-07
6.7808e-08
2.1739e-09
2.24159e-11
3.29361e-13
2.74691e-13
2.75136e-13
2.75985e-13
2.76135e-13
2.74888e-13
2.70542e-13
2.62574e-13
2.51931e-13
2.40179e-13
2.28694e-13
2.18232e-13
2.08899e-13
2.00394e-13
1.92304e-13
1.84309e-13
1.76241e-13
1.68074e-13
1.59866e-13
1.5171e-13
1.43681e-13
1.3582e-13
1.28129e-13
1.20588e-13
1.13163e-13
1.05821e-13
0.112295
0.112295
0.112295
0.112295
0.112295
0.112295
0.112295
0.112295
0.112295
0.112295
0.112295
0.112295
0.112295
0.112295
0.112295
0.112295
0.112295
0.112295
0.112295
0.112295
0.112295
0.112295
0.112295
0.112295
0.112295
0.112295
0.112295
0.112295
0.112295
0.112295
0.112295
0.112295
0.112295
0.112295
0.112295
0.112295
0.112295
0.112295
0.112295
0.112295
0.112295
0.112295
0.112295
0.112295
0.112295
0.112295
0.112295
0.112295
0.112295
0.112295
0.112295
0.112295
0.112295
0.112295
0.112295
0.112295
0.112295
0.112295
0.112295
0.112295
0.112295
0.112295
0.112295
0.112295
0.112295
0.112295
0.112295
0.112295
0.112295
0.112295
0.112295
0.112295
0.112295
0.112295
0.112295
0.112295
0.112295
0.112295
0.112295
0.112295
0.112295
0.112295
0.112295
0.112295
0.112295
0.112294
0.112286
0.112183
0.110207
0.0745545
0.0146682
0.00317481
0.0029477
0.00287123
0.0027912
0.00271139
0.00263357
0.00255754
0.00248317
0.00241041
0.0023392
0.00226948
0.0022012
0.00213431
0.00206876
0.00200451
0.00194152
0.00187974
0.00181914
0.00175968
0.00170133
0.00164405
0.00158784
0.00153263
0.00147838
0.001425
0.00137239
0.00132055
0.00126959
0.00121981
0.00117162
0.00112535
0.0010808
0.00103674
0.000990577
0.000937953
0.000872781
0.000787994
0.00067813
0.000543923
0.0003963
0.000255025
0.000140362
6.33501e-05
2.20545e-05
5.40427e-06
8.15282e-07
6.2995e-08
1.98679e-09
2.01501e-11
3.2092e-13
2.72891e-13
2.73381e-13
2.74361e-13
2.74664e-13
2.73628e-13
2.69607e-13
2.61901e-13
2.51445e-13
2.3984e-13
2.28473e-13
2.18096e-13
2.08818e-13
2.00348e-13
1.92283e-13
1.84303e-13
1.76243e-13
1.68077e-13
1.5987e-13
1.51712e-13
1.43683e-13
1.3582e-13
1.2813e-13
1.20589e-13
1.13163e-13
1.05822e-13
0.112295
0.112295
0.112295
0.112295
0.112295
0.112295
0.112295
0.112295
0.112295
0.112295
0.112295
0.112295
0.112295
0.112295
0.112295
0.112295
0.112295
0.112295
0.112295
0.112295
0.112295
0.112295
0.112295
0.112295
0.112295
0.112295
0.112295
0.112295
0.112295
0.112295
0.112295
0.112295
0.112295
0.112295
0.112295
0.112295
0.112295
0.112295
0.112295
0.112295
0.112295
0.112295
0.112295
0.112295
0.112295
0.112295
0.112295
0.112295
0.112295
0.112295
0.112295
0.112295
0.112295
0.112295
0.112295
0.112295
0.112295
0.112295
0.112295
0.112295
0.112295
0.112295
0.112295
0.112295
0.112295
0.112295
0.112295
0.112295
0.112295
0.112295
0.112295
0.112295
0.112295
0.112295
0.112295
0.112295
0.112295
0.112295
0.112295
0.112295
0.112295
0.112295
0.112295
0.112295
0.112295
0.112293
0.112279
0.112085
0.108159
0.0577562
0.00918134
0.00305466
0.00293786