/*--------------------------------*- C++ -*----------------------------------*\
  =========                 |
  \\      /  F ield         | OpenFOAM: The Open Source CFD Toolbox
   \\    /   O peration     | Website:  https://openfoam.org
    \\  /    A nd           | Version:  13
     \\/     M anipulation  |
\*---------------------------------------------------------------------------*/
FoamFile
{
    format      ascii;
    class       volScalarField;
    location    "0.0017";
    object      O2;
}
// * * * * * * * * * * * * * * * * * * * * * * * * * * * * * * * * * * * * * //

dimensions      [];

internalField   nonuniform List<scalar> 
33334
(
0.250541
0.250541
0.250541
0.250541
0.250541
0.250541
0.250541
0.250541
0.250541
0.250541
0.250541
0.250541
0.250541
0.250541
0.250541
0.250541
0.250541
0.250541
0.250541
0.250541
0.250541
0.250541
0.250541
0.250541
0.250541
0.250541
0.250541
0.250541
0.250541
0.250541
0.250541
0.250541
0.250541
0.250541
0.250541
0.250541
0.250541
0.250541
0.250541
0.250541
0.250541
0.250541
0.250541
0.250541
0.250541
0.250541
0.250541
0.250541
0.250541
0.250541
0.250541
0.250541
0.250541
0.250541
0.250541
0.250541
0.250541
0.250541
0.250541
0.250541
0.250541
0.250541
0.250541
0.250541
0.250541
0.250541
0.250541
0.250541
0.250541
0.250541
0.250541
0.250541
0.250541
0.250541
0.250541
0.250541
0.250541
0.250541
0.250541
0.250541
0.250541
0.250541
0.250541
0.250541
0.250541
0.250541
0.250541
0.250543
0.250559
0.25086
0.259696
0.364254
0.437879
0.444691
0.444854
0.444991
0.445134
0.445275
0.445413
0.445547
0.445678
0.445806
0.445932
0.446054
0.446174
0.446292
0.446408
0.446521
0.446632
0.44674
0.446847
0.446952
0.447055
0.447156
0.447255
0.447353
0.447449
0.447543
0.447637
0.447728
0.447816
0.447902
0.447983
0.448064
0.448147
0.44824
0.448353
0.4485
0.448693
0.448933
0.449205
0.449474
0.4497
0.449859
0.449948
0.449986
0.449998
0.45
0.45
0.45
0.45
0.45
0.45
0.45
0.45
0.45
0.45
0.45
0.45
0.45
0.45
0.45
0.45
0.45
0.45
0.45
0.45
0.45
0.45
0.45
0.45
0.45
0.45
0.45
0.45
0.45
0.250541
0.250541
0.250541
0.250541
0.250541
0.250541
0.250541
0.250541
0.250541
0.250541
0.250541
0.250541
0.250541
0.250541
0.250541
0.250541
0.250541
0.250541
0.250541
0.250541
0.250541
0.250541
0.250541
0.250541
0.250541
0.250541
0.250541
0.250541
0.250541
0.250541
0.250541
0.250541
0.250541
0.250541
0.250541
0.250541
0.250541
0.250541
0.250541
0.250541
0.250541
0.250541
0.250541
0.250541
0.250541
0.250541
0.250541
0.250541
0.250541
0.250541
0.250541
0.250541
0.250541
0.250541
0.250541
0.250541
0.250541
0.250541
0.250541
0.250541
0.250541
0.250541
0.250541
0.250541
0.250541
0.250541
0.250541
0.250541
0.250541
0.250541
0.250541
0.250541
0.250541
0.250541
0.250541
0.250541
0.250541
0.250541
0.250541
0.250541
0.250541
0.250541
0.250541
0.250541
0.250541
0.250541
0.250541
0.250542
0.250558
0.250839
0.259029
0.361518
0.437306
0.444689
0.444857
0.444993
0.445136
0.445277
0.445414
0.445548
0.445678
0.445806
0.445931
0.446054
0.446174
0.446292
0.446407
0.44652
0.446631
0.44674
0.446847
0.446952
0.447054
0.447155
0.447255
0.447352
0.447448
0.447543
0.447636
0.447728
0.447816
0.447901
0.447983
0.448064
0.448147
0.448239
0.448353
0.4485
0.448692
0.448932
0.449204
0.449473
0.4497
0.449859
0.449948
0.449986
0.449998
0.45
0.45
0.45
0.45
0.45
0.45
0.45
0.45
0.45
0.45
0.45
0.45
0.45
0.45
0.45
0.45
0.45
0.45
0.45
0.45
0.45
0.45
0.45
0.45
0.45
0.45
0.45
0.45
0.45
0.250541
0.250541
0.250541
0.250541
0.250541
0.250541
0.250541
0.250541
0.250541
0.250541
0.250541
0.250541
0.250541
0.250541
0.250541
0.250541
0.250541
0.250541
0.250541
0.250541
0.250541
0.250541
0.250541
0.250541
0.250541
0.250541
0.250541
0.250541
0.250541
0.250541
0.250541
0.250541
0.250541
0.250541
0.250541
0.250541
0.250541
0.250541
0.250541
0.250541
0.250541
0.250541
0.250541
0.250541
0.250541
0.250541
0.250541
0.250541
0.250541
0.250541
0.250541
0.250541
0.250541
0.250541
0.250541
0.250541
0.250541
0.250541
0.250541
0.250541
0.250541
0.250541
0.250541
0.250541
0.250541
0.250541
0.250541
0.250541
0.250541
0.250541
0.250541
0.250541
0.250541
0.250541
0.250541
0.250541
0.250541
0.250541
0.250541
0.250541
0.250541
0.250541
0.250541
0.250541
0.250541
0.250541
0.250541
0.250543
0.250559
0.250868
0.259867
0.364496
0.437908
0.444697
0.44486
0.444997
0.445139
0.445279
0.445416
0.445549
0.44568
0.445808
0.445933
0.446056
0.446176
0.446294
0.446409
0.446522
0.446633
0.446742
0.446848
0.446953
0.447056
0.447157
0.447256
0.447353
0.44745
0.447544
0.447638
0.447729
0.447817
0.447902
0.447984
0.448065
0.448148
0.44824
0.448354
0.448501
0.448693
0.448933
0.449205
0.449474
0.4497
0.449859
0.449948
0.449987
0.449998
0.45
0.45
0.45
0.45
0.45
0.45
0.45
0.45
0.45
0.45
0.45
0.45
0.45
0.45
0.45
0.45
0.45
0.45
0.45
0.45
0.45
0.45
0.45
0.45
0.45
0.45
0.45
0.45
0.45
0.250541
0.250541
0.250541
0.250541
0.250541
0.250541
0.250541
0.250541
0.250541
0.250541
0.250541
0.250541
0.250541
0.250541
0.250541
0.250541
0.250541
0.250541
0.250541
0.250541
0.250541
0.250541
0.250541
0.250541
0.250541
0.250541
0.250541
0.250541
0.250541
0.250541
0.250541
0.250541
0.250541
0.250541
0.250541
0.250541
0.250541
0.250541
0.250541
0.250541
0.250541
0.250541
0.250541
0.250541
0.250541
0.250541
0.250541
0.250541
0.250541
0.250541
0.250541
0.250541
0.250541
0.250541
0.250541
0.250541
0.250541
0.250541
0.250541
0.250541
0.250541
0.250541
0.250541
0.250541
0.250541
0.250541
0.250541
0.250541
0.250541
0.250541
0.250541
0.250541
0.250541
0.250541
0.250541
0.250541
0.250541
0.250541
0.250541
0.250541
0.250541
0.250541
0.250541
0.250541
0.250541
0.250541
0.250541
0.250543
0.250561
0.25091
0.261019
0.369055
0.438788
0.444708
0.444865
0.445001
0.445144
0.445284
0.44542
0.445554
0.445685
0.445812
0.445938
0.44606
0.44618
0.446298
0.446413
0.446526
0.446637
0.446745
0.446852
0.446957
0.447059
0.44716
0.447259
0.447357
0.447453
0.447547
0.44764
0.447731
0.44782
0.447905
0.447987
0.448067
0.44815
0.448243
0.448356
0.448503
0.448695
0.448935
0.449207
0.449475
0.449701
0.449859
0.449948
0.449987
0.449998
0.45
0.45
0.45
0.45
0.45
0.45
0.45
0.45
0.45
0.45
0.45
0.45
0.45
0.45
0.45
0.45
0.45
0.45
0.45
0.45
0.45
0.45
0.45
0.45
0.45
0.45
0.45
0.45
0.45
0.250541
0.250541
0.250541
0.250541
0.250541
0.250541
0.250541
0.250541
0.250541
0.250541
0.250541
0.250541
0.250541
0.250541
0.250541
0.250541
0.250541
0.250541
0.250541
0.250541
0.250541
0.250541
0.250541
0.250541
0.250541
0.250541
0.250541
0.250541
0.250541
0.250541
0.250541
0.250541
0.250541
0.250541
0.250541
0.250541
0.250541
0.250541
0.250541
0.250541
0.250541
0.250541
0.250541
0.250541
0.250541
0.250541
0.250541
0.250541
0.250541
0.250541
0.250541
0.250541
0.250541
0.250541
0.250541
0.250541
0.250541
0.250541
0.250541
0.250541
0.250541
0.250541
0.250541
0.250541
0.250541
0.250541
0.250541
0.250541
0.250541
0.250541
0.250541
0.250541
0.250541
0.250541
0.250541
0.250541
0.250541
0.250541
0.250541
0.250541
0.250541
0.250541
0.250541
0.250541
0.250541
0.250541
0.250541
0.250543
0.250565
0.250984
0.263007
0.37516
0.439875
0.44472
0.444872
0.445008
0.445151
0.445291
0.445427
0.445561
0.445691
0.445819
0.445944
0.446066
0.446186
0.446304
0.446419
0.446532
0.446642
0.446751
0.446857
0.446962
0.447064
0.447165
0.447264
0.447361
0.447457
0.447551
0.447644
0.447735
0.447824
0.447909
0.44799
0.44807
0.448153
0.448246
0.448359
0.448506
0.448698
0.448938
0.449209
0.449477
0.449703
0.44986
0.449949
0.449987
0.449998
0.45
0.45
0.45
0.45
0.45
0.45
0.45
0.45
0.45
0.45
0.45
0.45
0.45
0.45
0.45
0.45
0.45
0.45
0.45
0.45
0.45
0.45
0.45
0.45
0.45
0.45
0.45
0.45
0.45
0.250541
0.250541
0.250541
0.250541
0.250541
0.250541
0.250541
0.250541
0.250541
0.250541
0.250541
0.250541
0.250541
0.250541
0.250541
0.250541
0.250541
0.250541
0.250541
0.250541
0.250541
0.250541
0.250541
0.250541
0.250541
0.250541
0.250541
0.250541
0.250541
0.250541
0.250541
0.250541
0.250541
0.250541
0.250541
0.250541
0.250541
0.250541
0.250541
0.250541
0.250541
0.250541
0.250541
0.250541
0.250541
0.250541
0.250541
0.250541
0.250541
0.250541
0.250541
0.250541
0.250541
0.250541
0.250541
0.250541
0.250541
0.250541
0.250541
0.250541
0.250541
0.250541
0.250541
0.250541
0.250541
0.250541
0.250541
0.250541
0.250541
0.250541
0.250541
0.250541
0.250541
0.250541
0.250541
0.250541
0.250541
0.250541
0.250541
0.250541
0.250541
0.250541
0.250541
0.250541
0.250541
0.250541
0.250541
0.250543
0.25057
0.251088
0.265943
0.382313
0.44099
0.444734
0.44488
0.445018
0.44516
0.4453
0.445436
0.445569
0.4457
0.445827
0.445952
0.446074
0.446194
0.446311
0.446426
0.446539
0.446649
0.446757
0.446864
0.446968
0.44707
0.447171
0.44727
0.447367
0.447462
0.447557
0.44765
0.44774
0.447828
0.447913
0.447995
0.448075
0.448157
0.44825
0.448363
0.44851
0.448702
0.448942
0.449213
0.44948
0.449704
0.449861
0.449949
0.449987
0.449998
0.45
0.45
0.45
0.45
0.45
0.45
0.45
0.45
0.45
0.45
0.45
0.45
0.45
0.45
0.45
0.45
0.45
0.45
0.45
0.45
0.45
0.45
0.45
0.45
0.45
0.45
0.45
0.45
0.45
0.250541
0.250541
0.250541
0.250541
0.250541
0.250541
0.250541
0.250541
0.250541
0.250541
0.250541
0.250541
0.250541
0.250541
0.250541
0.250541
0.250541
0.250541
0.250541
0.250541
0.250541
0.250541
0.250541
0.250541
0.250541
0.250541
0.250541
0.250541
0.250541
0.250541
0.250541
0.250541
0.250541
0.250541
0.250541
0.250541
0.250541
0.250541
0.250541
0.250541
0.250541
0.250541
0.250541
0.250541
0.250541
0.250541
0.250541
0.250541
0.250541
0.250541
0.250541
0.250541
0.250541
0.250541
0.250541
0.250541
0.250541
0.250541
0.250541
0.250541
0.250541
0.250541
0.250541
0.250541
0.250541
0.250541
0.250541
0.250541
0.250541
0.250541
0.250541
0.250541
0.250541
0.250541
0.250541
0.250541
0.250541
0.250541
0.250541
0.250541
0.250541
0.250541
0.250541
0.250541
0.250541
0.250541
0.250541
0.250544
0.250578
0.25125
0.270169
0.390146
0.442032
0.444748
0.44489
0.445029
0.445171
0.44531
0.445446
0.445579
0.445709
0.445836
0.445961
0.446083
0.446202
0.446319
0.446434
0.446546
0.446657
0.446765
0.446871
0.446975
0.447077
0.447178
0.447276
0.447373
0.447469
0.447563
0.447655
0.447746
0.447834
0.447919
0.448
0.44808
0.448162
0.448255
0.448368
0.448515
0.448707
0.448947
0.449217
0.449483
0.449707
0.449863
0.44995
0.449987
0.449998
0.45
0.45
0.45
0.45
0.45
0.45
0.45
0.45
0.45
0.45
0.45
0.45
0.45
0.45
0.45
0.45
0.45
0.45
0.45
0.45
0.45
0.45
0.45
0.45
0.45
0.45
0.45
0.45
0.45
0.250541
0.250541
0.250541
0.250541
0.250541
0.250541
0.250541
0.250541
0.250541
0.250541
0.250541
0.250541
0.250541
0.250541
0.250541
0.250541
0.250541
0.250541
0.250541
0.250541
0.250541
0.250541
0.250541
0.250541
0.250541
0.250541
0.250541
0.250541
0.250541
0.250541
0.250541
0.250541
0.250541
0.250541
0.250541
0.250541
0.250541
0.250541
0.250541
0.250541
0.250541
0.250541
0.250541
0.250541
0.250541
0.250541
0.250541
0.250541
0.250541
0.250541
0.250541
0.250541
0.250541
0.250541
0.250541
0.250541
0.250541
0.250541
0.250541
0.250541
0.250541
0.250541
0.250541
0.250541
0.250541
0.250541
0.250541
0.250541
0.250541
0.250541
0.250541
0.250541
0.250541
0.250541
0.250541
0.250541
0.250541
0.250541
0.250541
0.250541
0.250541
0.250541
0.250541
0.250541
0.250541
0.250541
0.250541
0.250545
0.250589
0.251504
0.276449
0.398481
0.442925
0.444762
0.444902
0.445041
0.445183
0.445322
0.445457
0.44559
0.44572
0.445847
0.445971
0.446093
0.446212
0.446329
0.446443
0.446555
0.446665
0.446773
0.446879
0.446983
0.447085
0.447185
0.447283
0.44738
0.447476
0.44757
0.447662
0.447752
0.44784
0.447924
0.448006
0.448085
0.448168
0.44826
0.448374
0.448521
0.448713
0.448952
0.449222
0.449487
0.449709
0.449864
0.44995
0.449987
0.449998
0.45
0.45
0.45
0.45
0.45
0.45
0.45
0.45
0.45
0.45
0.45
0.45
0.45
0.45
0.45
0.45
0.45
0.45
0.45
0.45
0.45
0.45
0.45
0.45
0.45
0.45
0.45
0.45
0.45
0.250541
0.250541
0.250541
0.250541
0.250541
0.250541
0.250541
0.250541
0.250541
0.250541
0.250541
0.250541
0.250541
0.250541
0.250541
0.250541
0.250541
0.250541
0.250541
0.250541
0.250541
0.250541
0.250541
0.250541
0.250541
0.250541
0.250541
0.250541
0.250541
0.250541
0.250541
0.250541
0.250541
0.250541
0.250541
0.250541
0.250541
0.250541
0.250541
0.250541
0.250541
0.250541
0.250541
0.250541
0.250541
0.250541
0.250541
0.250541
0.250541
0.250541
0.250541
0.250541
0.250541
0.250541
0.250541
0.250541
0.250541
0.250541
0.250541
0.250541
0.250541
0.250541
0.250541
0.250541
0.250541
0.250541
0.250541
0.250541
0.250541
0.250541
0.250541
0.250541
0.250541
0.250541
0.250541
0.250541
0.250541
0.250541
0.250541
0.250541
0.250541
0.250541
0.250541
0.250541
0.250541
0.250541
0.250542
0.250546
0.250607
0.251898
0.285496
0.407061
0.44361
0.444777
0.444914
0.445054
0.445196
0.445334
0.44547
0.445602
0.445731
0.445858
0.445982
0.446103
0.446222
0.446339
0.446453
0.446565
0.446675
0.446782
0.446888
0.446992
0.447093
0.447193
0.447291
0.447388
0.447483
0.447577
0.447669
0.447759
0.447847
0.447931
0.448012
0.448091
0.448174
0.448266
0.44838
0.448527
0.448719
0.448958
0.449227
0.449492
0.449713
0.449866
0.449951
0.449987
0.449998
0.45
0.45
0.45
0.45
0.45
0.45
0.45
0.45
0.45
0.45
0.45
0.45
0.45
0.45
0.45
0.45
0.45
0.45
0.45
0.45
0.45
0.45
0.45
0.45
0.45
0.45
0.45
0.45
0.45
0.250541
0.250541
0.250541
0.250541
0.250541
0.250541
0.250541
0.250541
0.250541
0.250541
0.250541
0.250541
0.250541
0.250541
0.250541
0.250541
0.250541
0.250541
0.250541
0.250541
0.250541
0.250541
0.250541
0.250541
0.250541
0.250541
0.250541
0.250541
0.250541
0.250541
0.250541
0.250541
0.250541
0.250541
0.250541
0.250541
0.250541
0.250541
0.250541
0.250541
0.250541
0.250541
0.250541
0.250541
0.250541
0.250541
0.250541
0.250541
0.250541
0.250541
0.250541
0.250541
0.250541
0.250541
0.250541
0.250541
0.250541
0.250541
0.250541
0.250541
0.250541
0.250541
0.250541
0.250541
0.250541
0.250541
0.250541
0.250541
0.250541
0.250541
0.250541
0.250541
0.250541
0.250541
0.250541
0.250541
0.250541
0.250541
0.250541
0.250541
0.250541
0.250541
0.250541
0.250541
0.250541
0.250541
0.250542
0.250548
0.250635
0.252546
0.298292
0.415479
0.444093
0.444791
0.444927
0.445068
0.445209
0.445348
0.445483
0.445614
0.445744
0.44587
0.445993
0.446115
0.446233
0.446349
0.446463
0.446575
0.446685
0.446792
0.446897
0.447001
0.447102
0.447202
0.4473
0.447396
0.447491
0.447585
0.447677
0.447767
0.447854
0.447938
0.448019
0.448098
0.44818
0.448273
0.448387
0.448534
0.448726
0.448965
0.449234
0.449497
0.449716
0.449868
0.449952
0.449988
0.449998
0.45
0.45
0.45
0.45
0.45
0.45
0.45
0.45
0.45
0.45
0.45
0.45
0.45
0.45
0.45
0.45
0.45
0.45
0.45
0.45
0.45
0.45
0.45
0.45
0.45
0.45
0.45
0.45
0.45
0.250541
0.250541
0.250541
0.250541
0.250541
0.250541
0.250541
0.250541
0.250541
0.250541
0.250541
0.250541
0.250541
0.250541
0.250541
0.250541
0.250541
0.250541
0.250541
0.250541
0.250541
0.250541
0.250541
0.250541
0.250541
0.250541
0.250541
0.250541
0.250541
0.250541
0.250541
0.250541
0.250541
0.250541
0.250541
0.250541
0.250541
0.250541
0.250541
0.250541
0.250541
0.250541
0.250541
0.250541
0.250541
0.250541
0.250541
0.250541
0.250541
0.250541
0.250541
0.250541
0.250541
0.250541
0.250541
0.250541
0.250541
0.250541
0.250541
0.250541
0.250541
0.250541
0.250541
0.250541
0.250541
0.250541
0.250541
0.250541
0.250541
0.250541
0.250541
0.250541
0.250541
0.250541
0.250541
0.250541
0.250541
0.250541
0.250541
0.250541
0.250541
0.250541
0.250541
0.250541
0.250541
0.250541
0.250542
0.250551
0.250681
0.253616
0.31498
0.423396
0.444395
0.444806
0.444941
0.445083
0.445224
0.445362
0.445496
0.445628
0.445756
0.445882
0.446006
0.446127
0.446245
0.446361
0.446474
0.446586
0.446695
0.446802
0.446907
0.447011
0.447112
0.447211
0.447309
0.447405
0.4475
0.447593
0.447685
0.447775
0.447862
0.447946
0.448026
0.448105
0.448187
0.44828
0.448394
0.448542
0.448734
0.448973
0.449241
0.449502
0.44972
0.44987
0.449953
0.449988
0.449998
0.45
0.45
0.45
0.45
0.45
0.45
0.45
0.45
0.45
0.45
0.45
0.45
0.45
0.45
0.45
0.45
0.45
0.45
0.45
0.45
0.45
0.45
0.45
0.45
0.45
0.45
0.45
0.45
0.45
0.250541
0.250541
0.250541
0.250541
0.250541
0.250541
0.250541
0.250541
0.250541
0.250541
0.250541
0.250541
0.250541
0.250541
0.250541
0.250541
0.250541
0.250541
0.250541
0.250541
0.250541
0.250541
0.250541
0.250541
0.250541
0.250541
0.250541
0.250541
0.250541
0.250541
0.250541
0.250541
0.250541
0.250541
0.250541
0.250541
0.250541
0.250541
0.250541
0.250541
0.250541
0.250541
0.250541
0.250541
0.250541
0.250541
0.250541
0.250541
0.250541
0.250541
0.250541
0.250541
0.250541
0.250541
0.250541
0.250541
0.250541
0.250541
0.250541
0.250541
0.250541
0.250541
0.250541
0.250541
0.250541
0.250541
0.250541
0.250541
0.250541
0.250541
0.250541
0.250541
0.250541
0.250541
0.250541
0.250541
0.250541
0.250541
0.250541
0.250541
0.250541
0.250541
0.250541
0.250541
0.250541
0.250541
0.250543
0.250556
0.250756
0.255478
0.334948
0.430405
0.444567
0.444821
0.444956
0.445098
0.445239
0.445376
0.44551
0.445642
0.44577
0.445896
0.446019
0.446139
0.446257
0.446373
0.446486
0.446597
0.446706
0.446813
0.446918
0.447021
0.447122
0.447221
0.447319
0.447415
0.447509
0.447602
0.447694
0.447783
0.44787
0.447954
0.448034
0.448113
0.448195
0.448288
0.448402
0.44855
0.448743
0.448981
0.449248
0.449508
0.449724
0.449872
0.449954
0.449988
0.449998
0.45
0.45
0.45
0.45
0.45
0.45
0.45
0.45
0.45
0.45
0.45
0.45
0.45
0.45
0.45
0.45
0.45
0.45
0.45
0.45
0.45
0.45
0.45
0.45
0.45
0.45
0.45
0.45
0.45
0.250541
0.250541
0.250541
0.250541
0.250541
0.250541
0.250541
0.250541
0.250541
0.250541
0.250541
0.250541
0.250541
0.250541
0.250541
0.250541
0.250541
0.250541
0.250541
0.250541
0.250541
0.250541
0.250541
0.250541
0.250541
0.250541
0.250541
0.250541
0.250541
0.250541
0.250541
0.250541
0.250541
0.250541
0.250541
0.250541
0.250541
0.250541
0.250541
0.250541
0.250541
0.250541
0.250541
0.250541
0.250541
0.250541
0.250541
0.250541
0.250541
0.250541
0.250541
0.250541
0.250541
0.250541
0.250541
0.250541
0.250541
0.250541
0.250541
0.250541
0.250541
0.250541
0.250541
0.250541
0.250541
0.250541
0.250541
0.250541
0.250541
0.250541
0.250541
0.250541
0.250541
0.250541
0.250541
0.250541
0.250541
0.250541
0.250541
0.250541
0.250541
0.250541
0.250541
0.250541
0.250541
0.250541
0.250543
0.250564
0.25089
0.25879
0.356022
0.435982
0.444656
0.444836
0.444972
0.445114
0.445255
0.445392
0.445525
0.445656
0.445784
0.445909
0.446032
0.446152
0.44627
0.446385
0.446498
0.446609
0.446718
0.446824
0.446929
0.447032
0.447133
0.447232
0.447329
0.447425
0.447519
0.447612
0.447703
0.447793
0.447879
0.447962
0.448042
0.448121
0.448203
0.448296
0.44841
0.448559
0.448752
0.44899
0.449256
0.449515
0.449729
0.449875
0.449955
0.449989
0.449998
0.45
0.45
0.45
0.45
0.45
0.45
0.45
0.45
0.45
0.45
0.45
0.45
0.45
0.45
0.45
0.45
0.45
0.45
0.45
0.45
0.45
0.45
0.45
0.45
0.45
0.45
0.45
0.45
0.45
0.250541
0.250541
0.250541
0.250541
0.250541
0.250541
0.250541
0.250541
0.250541
0.250541
0.250541
0.250541
0.250541
0.250541
0.250541
0.250541
0.250541
0.250541
0.250541
0.250541
0.250541
0.250541
0.250541
0.250541
0.250541
0.250541
0.250541
0.250541
0.250541
0.250541
0.250541
0.250541
0.250541
0.250541
0.250541
0.250541
0.250541
0.250541
0.250541
0.250541
0.250541
0.250541
0.250541
0.250541
0.250541
0.250541
0.250541
0.250541
0.250541
0.250541
0.250541
0.250541
0.250541
0.250541
0.250541
0.250541
0.250541
0.250541
0.250541
0.250541
0.250541
0.250541
0.250541
0.250541
0.250541
0.250541
0.250541
0.250541
0.250541
0.250541
0.250541
0.250541
0.250541
0.250541
0.250541
0.250541
0.250541
0.250541
0.250541
0.250541
0.250541
0.250541
0.250541
0.250541
0.250541
0.250542
0.250545
0.250579
0.251133
0.264563
0.376315
0.43995
0.4447
0.444851
0.444989
0.445131
0.445271
0.445407
0.445541
0.445671
0.445799
0.445924
0.446046
0.446166
0.446283
0.446398
0.446511
0.446621
0.44673
0.446836
0.446941
0.447043
0.447144
0.447242
0.447339
0.447435
0.447529
0.447622
0.447713
0.447802
0.447888
0.447971
0.448051
0.44813
0.448212
0.448305
0.448419
0.448568
0.448762
0.449
0.449265
0.449522
0.449734
0.449878
0.449957
0.449989
0.449998
0.45
0.45
0.45
0.45
0.45
0.45
0.45
0.45
0.45
0.45
0.45
0.45
0.45
0.45
0.45
0.45
0.45
0.45
0.45
0.45
0.45
0.45
0.45
0.45
0.45
0.45
0.45
0.45
0.45
0.250541
0.250541
0.250541
0.250541
0.250541
0.250541
0.250541
0.250541
0.250541
0.250541
0.250541
0.250541
0.250541
0.250541
0.250541
0.250541
0.250541
0.250541
0.250541
0.250541
0.250541
0.250541
0.250541
0.250541
0.250541
0.250541
0.250541
0.250541
0.250541
0.250541
0.250541
0.250541
0.250541
0.250541
0.250541
0.250541
0.250541
0.250541
0.250541
0.250541
0.250541
0.250541
0.250541
0.250541
0.250541
0.250541
0.250541
0.250541
0.250541
0.250541
0.250541
0.250541
0.250541
0.250541
0.250541
0.250541
0.250541
0.250541
0.250541
0.250541
0.250541
0.250541
0.250541
0.250541
0.250541
0.250541
0.250541
0.250541
0.250541
0.250541
0.250541
0.250541
0.250541
0.250541
0.250541
0.250541
0.250541
0.250541
0.250541
0.250541
0.250541
0.250541
0.250541
0.250541
0.250541
0.250542
0.250547
0.250604
0.251591
0.274743
0.394671
0.442459
0.444726
0.444867
0.445006
0.445148
0.445288
0.445424
0.445556
0.445686
0.445814
0.445938
0.44606
0.44618
0.446297
0.446411
0.446524
0.446634
0.446742
0.446849
0.446953
0.447055
0.447155
0.447254
0.447351
0.447446
0.44754
0.447632
0.447723
0.447812
0.447898
0.447981
0.44806
0.448139
0.448221
0.448314
0.448429
0.448578
0.448772
0.449011
0.449275
0.44953
0.449739
0.449881
0.449958
0.449989
0.449998
0.45
0.45
0.45
0.45
0.45
0.45
0.45
0.45
0.45
0.45
0.45
0.45
0.45
0.45
0.45
0.45
0.45
0.45
0.45
0.45
0.45
0.45
0.45
0.45
0.45
0.45
0.45
0.45
0.45
0.250541
0.250541
0.250541
0.250541
0.250541
0.250541
0.250541
0.250541
0.250541
0.250541
0.250541
0.250541
0.250541
0.250541
0.250541
0.250541
0.250541
0.250541
0.250541
0.250541
0.250541
0.250541
0.250541
0.250541
0.250541
0.250541
0.250541
0.250541
0.250541
0.250541
0.250541
0.250541
0.250541
0.250541
0.250541
0.250541
0.250541
0.250541
0.250541
0.250541
0.250541
0.250541
0.250541
0.250541
0.250541
0.250541
0.250541
0.250541
0.250541
0.250541
0.250541
0.250541
0.250541
0.250541
0.250541
0.250541
0.250541
0.250541
0.250541
0.250541
0.250541
0.250541
0.250541
0.250541
0.250541
0.250541
0.250541
0.250541
0.250541
0.250541
0.250541
0.250541
0.250541
0.250541
0.250541
0.250541
0.250541
0.250541
0.250541
0.250541
0.250541
0.250541
0.250541
0.250541
0.250541
0.250542
0.250551
0.250651
0.252478
0.292039
0.410728
0.443781
0.444746
0.444883
0.445024
0.445166
0.445305
0.44544
0.445573
0.445702
0.445829
0.445953
0.446075
0.446194
0.446311
0.446425
0.446537
0.446647
0.446755
0.446861
0.446965
0.447067
0.447167
0.447266
0.447362
0.447457
0.447551
0.447643
0.447734
0.447822
0.447908
0.447991
0.44807
0.448148
0.44823
0.448324
0.448439
0.448589
0.448784
0.449022
0.449285
0.449538
0.449745
0.449884
0.449959
0.44999
0.449998
0.45
0.45
0.45
0.45
0.45
0.45
0.45
0.45
0.45
0.45
0.45
0.45
0.45
0.45
0.45
0.45
0.45
0.45
0.45
0.45
0.45
0.45
0.45
0.45
0.45
0.45
0.45
0.45
0.45
0.250541
0.250541
0.250541
0.250541
0.250541
0.250541
0.250541
0.250541
0.250541
0.250541
0.250541
0.250541
0.250541
0.250541
0.250541
0.250541
0.250541
0.250541
0.250541
0.250541
0.250541
0.250541
0.250541
0.250541
0.250541
0.250541
0.250541
0.250541
0.250541
0.250541
0.250541
0.250541
0.250541
0.250541
0.250541
0.250541
0.250541
0.250541
0.250541
0.250541
0.250541
0.250541
0.250541
0.250541
0.250541
0.250541
0.250541
0.250541
0.250541
0.250541
0.250541
0.250541
0.250541
0.250541
0.250541
0.250541
0.250541
0.250541
0.250541
0.250541
0.250541
0.250541
0.250541
0.250541
0.250541
0.250541
0.250541
0.250541
0.250541
0.250541
0.250541
0.250541
0.250541
0.250541
0.250541
0.250541
0.250541
0.250541
0.250541
0.250541
0.250541
0.250541
0.250541
0.250541
0.250541
0.250543
0.250558
0.25074
0.254249
0.317576
0.423946
0.444361
0.444764
0.4449
0.445042
0.445184
0.445322
0.445457
0.445589
0.445719
0.445845
0.445969
0.44609
0.446209
0.446325
0.44644
0.446551
0.446661
0.446769
0.446874
0.446978
0.44708
0.44718
0.447278
0.447374
0.447469
0.447562
0.447654
0.447745
0.447833
0.447919
0.448001
0.44808
0.448159
0.448241
0.448334
0.44845
0.4486
0.448796
0.449034
0.449296
0.449547
0.449751
0.449887
0.449961
0.44999
0.449999
0.45
0.45
0.45
0.45
0.45
0.45
0.45
0.45
0.45
0.45
0.45
0.45
0.45
0.45
0.45
0.45
0.45
0.45
0.45
0.45
0.45
0.45
0.45
0.45
0.45
0.45
0.45
0.45
0.45
0.250541
0.250541
0.250541
0.250541
0.250541
0.250541
0.250541
0.250541
0.250541
0.250541
0.250541
0.250541
0.250541
0.250541
0.250541
0.250541
0.250541
0.250541
0.250541
0.250541
0.250541
0.250541
0.250541
0.250541
0.250541
0.250541
0.250541
0.250541
0.250541
0.250541
0.250541
0.250541
0.250541
0.250541
0.250541
0.250541
0.250541
0.250541
0.250541
0.250541
0.250541
0.250541
0.250541
0.250541
0.250541
0.250541
0.250541
0.250541
0.250541
0.250541
0.250541
0.250541
0.250541
0.250541
0.250541
0.250541
0.250541
0.250541
0.250541
0.250541
0.250541
0.250541
0.250541
0.250541
0.250541
0.250541
0.250541
0.250541
0.250541
0.250541
0.250541
0.250541
0.250541
0.250541
0.250541
0.250541
0.250541
0.250541
0.250541
0.250541
0.250541
0.250541
0.250541
0.250541
0.250542
0.250544
0.250571
0.250914
0.257888
0.347413
0.433692
0.444574
0.444782
0.444918
0.445061
0.445202
0.44534
0.445475
0.445606
0.445735
0.445861
0.445985
0.446106
0.446224
0.44634
0.446454
0.446566
0.446675
0.446783
0.446888
0.446991
0.447093
0.447193
0.44729
0.447386
0.447481
0.447574
0.447666
0.447757
0.447845
0.44793
0.448012
0.448091
0.448169
0.448251
0.448345
0.448461
0.448612
0.448808
0.449047
0.449308
0.449556
0.449757
0.449891
0.449962
0.449991
0.449999
0.45
0.45
0.45
0.45
0.45
0.45
0.45
0.45
0.45
0.45
0.45
0.45
0.45
0.45
0.45
0.45
0.45
0.45
0.45
0.45
0.45
0.45
0.45
0.45
0.45
0.45
0.45
0.45
0.45
0.250541
0.250541
0.250541
0.250541
0.250541
0.250541
0.250541
0.250541
0.250541
0.250541
0.250541
0.250541
0.250541
0.250541
0.250541
0.250541
0.250541
0.250541
0.250541
0.250541
0.250541
0.250541
0.250541
0.250541
0.250541
0.250541
0.250541
0.250541
0.250541
0.250541
0.250541
0.250541
0.250541
0.250541
0.250541
0.250541
0.250541
0.250541
0.250541
0.250541
0.250541
0.250541
0.250541
0.250541
0.250541
0.250541
0.250541
0.250541
0.250541
0.250541
0.250541
0.250541
0.250541
0.250541
0.250541
0.250541
0.250541
0.250541
0.250541
0.250541
0.250541
0.250541
0.250541
0.250541
0.250541
0.250541
0.250541
0.250541
0.250541
0.250541
0.250541
0.250541
0.250541
0.250541
0.250541
0.250541
0.250541
0.250541
0.250541
0.250541
0.250541
0.250541
0.250541
0.250541
0.250542
0.250547
0.250595
0.251269
0.26535
0.375725
0.439721
0.444646
0.444799
0.444937
0.44508
0.445221
0.445358
0.445493
0.445624
0.445752
0.445878
0.446001
0.446122
0.44624
0.446356
0.446469
0.446581
0.44669
0.446797
0.446902
0.447005
0.447106
0.447206
0.447303
0.447399
0.447494
0.447587
0.447678
0.447768
0.447856
0.447942
0.448023
0.448102
0.44818
0.448262
0.448356
0.448473
0.448625
0.448821
0.44906
0.44932
0.449566
0.449764
0.449895
0.449964
0.449991
0.449999
0.45
0.45
0.45
0.45
0.45
0.45
0.45
0.45
0.45
0.45
0.45
0.45
0.45
0.45
0.45
0.45
0.45
0.45
0.45
0.45
0.45
0.45
0.45
0.45
0.45
0.45
0.45
0.45
0.45
0.250541
0.250541
0.250541
0.250541
0.250541
0.250541
0.250541
0.250541
0.250541
0.250541
0.250541
0.250541
0.250541
0.250541
0.250541
0.250541
0.250541
0.250541
0.250541
0.250541
0.250541
0.250541
0.250541
0.250541
0.250541
0.250541
0.250541
0.250541
0.250541
0.250541
0.250541
0.250541
0.250541
0.250541
0.250541
0.250541
0.250541
0.250541
0.250541
0.250541
0.250541
0.250541
0.250541
0.250541
0.250541
0.250541
0.250541
0.250541
0.250541
0.250541
0.250541
0.250541
0.250541
0.250541
0.250541
0.250541
0.250541
0.250541
0.250541
0.250541
0.250541
0.250541
0.250541
0.250541
0.250541
0.250541
0.250541
0.250541
0.250541
0.250541
0.250541
0.250541
0.250541
0.250541
0.250541
0.250541
0.250541
0.250541
0.250541
0.250541
0.250541
0.250541
0.250541
0.250541
0.250543
0.250552
0.250644
0.252024
0.280063
0.399512
0.442843
0.444676
0.444816
0.444957
0.4451
0.44524
0.445377
0.445511
0.445642
0.44577
0.445895
0.446018
0.446138
0.446256
0.446371
0.446485
0.446596
0.446705
0.446811
0.446916
0.447019
0.44712
0.447219
0.447317
0.447412
0.447507
0.447599
0.447691
0.447781
0.447869
0.447953
0.448035
0.448113
0.448191
0.448273
0.448368
0.448485
0.448638
0.448835
0.449074
0.449332
0.449576
0.449771
0.449899
0.449966
0.449992
0.449999
0.45
0.45
0.45
0.45
0.45
0.45
0.45
0.45
0.45
0.45
0.45
0.45
0.45
0.45
0.45
0.45
0.45
0.45
0.45
0.45
0.45
0.45
0.45
0.45
0.45
0.45
0.45
0.45
0.45
0.250541
0.250541
0.250541
0.250541
0.250541
0.250541
0.250541
0.250541
0.250541
0.250541
0.250541
0.250541
0.250541
0.250541
0.250541
0.250541
0.250541
0.250541
0.250541
0.250541
0.250541
0.250541
0.250541
0.250541
0.250541
0.250541
0.250541
0.250541
0.250541
0.250541
0.250541
0.250541
0.250541
0.250541
0.250541
0.250541
0.250541
0.250541
0.250541
0.250541
0.250541
0.250541
0.250541
0.250541
0.250541
0.250541
0.250541
0.250541
0.250541
0.250541
0.250541
0.250541
0.250541
0.250541
0.250541
0.250541
0.250541
0.250541
0.250541
0.250541
0.250541
0.250541
0.250541
0.250541
0.250541
0.250541
0.250541
0.250541
0.250541
0.250541
0.250541
0.250541
0.250541
0.250541
0.250541
0.250541
0.250541
0.250541
0.250541
0.250541
0.250541
0.250541
0.250541
0.250542
0.250544
0.250561
0.250744
0.253703
0.306319
0.41837
0.444092
0.444697
0.444834
0.444977
0.44512
0.44526
0.445396
0.445529
0.44566
0.445787
0.445912
0.446035
0.446155
0.446272
0.446387
0.4465
0.446611
0.44672
0.446826
0.446931
0.447034
0.447134
0.447233
0.447331
0.447426
0.44752
0.447613
0.447704
0.447794
0.447881
0.447966
0.448047
0.448125
0.448203
0.448285
0.44838
0.448498
0.448652
0.44885
0.449088
0.449346
0.449587
0.449778
0.449903
0.449967
0.449992
0.449999
0.45
0.45
0.45
0.45
0.45
0.45
0.45
0.45
0.45
0.45
0.45
0.45
0.45
0.45
0.45
0.45
0.45
0.45
0.45
0.45
0.45
0.45
0.45
0.45
0.45
0.45
0.45
0.45
0.45
0.250541
0.250541
0.250541
0.250541
0.250541
0.250541
0.250541
0.250541
0.250541
0.250541
0.250541
0.250541
0.250541
0.250541
0.250541
0.250541
0.250541
0.250541
0.250541
0.250541
0.250541
0.250541
0.250541
0.250541
0.250541
0.250541
0.250541
0.250541
0.250541
0.250541
0.250541
0.250541
0.250541
0.250541
0.250541
0.250541
0.250541
0.250541
0.250541
0.250541
0.250541
0.250541
0.250541
0.250541
0.250541
0.250541
0.250541
0.250541
0.250541
0.250541
0.250541
0.250541
0.250541
0.250541
0.250541
0.250541
0.250541
0.250541
0.250541
0.250541