/*--------------------------------*- C++ -*----------------------------------*\
  =========                 |
  \\      /  F ield         | OpenFOAM: The Open Source CFD Toolbox
   \\    /   O peration     | Website:  https://openfoam.org
    \\  /    A nd           | Version:  13
     \\/     M anipulation  |
\*---------------------------------------------------------------------------*/
FoamFile
{
    format      ascii;
    class       volScalarField;
    location    "0.0017";
    object      p;
}
// * * * * * * * * * * * * * * * * * * * * * * * * * * * * * * * * * * * * * //

dimensions      [1 -1 -2 0 0 0 0];

internalField   nonuniform List<scalar> 
33334
(
329155
329567
330032
330873
331786
333104
334778
336698
338978
341315
343769
346308
348934
351630
354378
357161
359966
362782
365601
368420
371229
374022
376791
379527
382226
384883
387498
390078
392621
395116
397562
399959
402314
404643
406944
409239
411455
413656
415647
417536
419344
421100
422819
424536
426246
427943
429624
431299
432972
434654
436352
438073
439887
441834
443882
446089
448505
451176
454171
457579
461472
465956
471113
477022
483785
491441
500072
509706
520396
532202
545123
559191
574391
590747
608236
626921
646835
668014
690602
714694
740620
768709
802056
835675
870480
907738
947760
999364
1.06586e+06
1.15465e+06
1.23498e+06
859746
400250
224818
214826
214843
214883
214829
214695
214426
213860
212960
212639
212549
212487
212426
212380
212353
212343
212348
212370
212409
212466
212541
212635
212750
212887
213047
213230
213432
213656
213898
214169
214461
214756
215098
215459
215837
216244
216693
217206
217814
218540
219332
220024
220518
220683
220267
220557
220042
219668
219354
219076
218775
218477
218180
217887
217604
217330
217062
216799
216540
216285
216034
215790
215554
215328
215110
214895
214679
214461
214243
214026
213813
213604
213399
329567
330065
330545
331605
332873
334251
335905
337589
339605
341762
344096
346558
349123
351765
354469
357215
359985
362770
365557
368340
371113
373872
376609
379314
381983
384617
387215
389780
392309
394797
397243
399641
401996
404327
406632
408938
411155
413345
415384
417250
419048
420794
422505
424208
425903
427589
429256
430911
432573
434249
435934
437641
439456
441369
443392
445571
447947
450563
453492
456820
460618
464999
470019
475772
482353
489809
498219
507647
518116
529656
542349
556162
571116
587243
604598
623133
642951
664059
686501
710358
735715
762398
788750
819951
855082
894806
943312
998514
1.06554e+06
1.15341e+06
1.23564e+06
877315
412269
225821
213427
213014
212629
212158
211699
211396
211434
211936
212087
212083
212053
212046
212054
212071
212099
212139
212193
212262
212347
212449
212569
212707
212865
213043
213247
213470
213718
213985
214272
214589
214905
215258
215623
216005
216411
216850
217350
217927
218624
219413
220135
220527
220476
220035
220361
219998
219650
219347
219072
218774
218477
218181
217888
217605
217330
217062
216799
216540
216285
216034
215790
215554
215328
215110
214895
214679
214461
214243
214026
213813
213604
213399
330032
330545
330935
331720
332933
334383
336189
338081
340004
342152
344491
346965
349534
352177
354876
357617
360383
363167
365953
368732
371497
374245
376969
379662
382317
384936
387518
390066
392577
395045
397470
399849
402187
404507
406803
409099
411307
413481
415524
417378
419166
420904
422610
424311
426005
427687
429349
431002
432664
434346
436036
437749
439554
441465
443503
445703
448101
450746
453711
457082
460944
465393
470500
476355
483043
490624
499163
508711
519299
530966
543772
557692
572751
588956
606348
624916
644745
665824
688233
712132
737968
765956
795407
827396
863419
904604
951677
1.00601e+06
1.0721e+06
1.15677e+06
1.22957e+06
855908
400278
223322
212367
212049
211861
211734
211729
211841
212026
212160
212148
212104
212072
212053
212045
212049
212066
212097
212143
212204
212281
212375
212486
212617
212766
212934
213123
213332
213563
213814
214080
214373
214674
215002
215348
215716
216106
216530
217013
217584
218260
219008
219664
220034
220071
219689
220051
219875
219556
219298
219051
218767
218476
218181
217888
217605
217331
217062
216799
216540
216285
216034
215790
215554
215328
215110
214895
214679
214461
214243
214026
213813
213604
213399
330873
331605
331720
332573
333790
335270
336926
338835
340823
342998
345307
347736
350251
352840
355488
358184
360913
363664
366423
369183
371932
374668
377385
380072
382725
385343
387923
390467
392973
395435
397851
400219
402545
404857
407141
409421
411620
413772
415826
417663
419439
421173
422879
424579
426271
427948
429603
431250
432912
434598
436298
438024
439819
441717
443742
445934
448324
450961
453918
457285
461150
465597
470703
476556
483233
490809
499343
508878
519457
531113
543897
557793
572838
589020
606394
624974
644832
665991
688585
712655
738305
765622
795120
827280
863170
903659
950038
1.00453e+06
1.07137e+06
1.15761e+06
1.22781e+06
839046
386070
220709
211458
211336
211354
211405
211479
211540
211562
211527
211474
211430
211400
211382
211376
211385
211408
211447
211501
211572
211659
211763
211885
212026
212186
212363
212559
212774
213008
213263
213530
213823
214130
214448
214793
215157
215542
215959
216432
216995
217662
218388
219017
219394
219498
219198
219580
219671
219402
219208
219001
218746
218470
218181
217889
217606
217331
217063
216799
216540
216285
216034
215790
215554
215328
215110
214895
214679
214461
214243
214026
213813
213604
213399
331786
332873
332933
333790
334901
336363
337983
339903
341901
344065
346344
348731
351200
353739
356342
358996
361685
364398
367119
369842
372560
375268
377962
380632
383269
385870
388432
390955
393440
395880
398275
400624
402933
405232
407501
409762
411948
414073
416120
417949
419705
421430
423133
424832
426520
428190
429839
431486
433151
434844
436555
438289
440073
441956
443973
446164
448555
451194
454152
457522
461390
465832
470930
476768
483414
490968
499478
508988
519546
531182
543941
557819
572860
589047
606435
625036
644910
666090
688694
712771
738459
765956
795762
828292
864383
904855
951411
1.00592e+06
1.07308e+06
1.16007e+06
1.22194e+06
811985
367765
218223
210837
210847
210920
210951
210941
210892
210817
210741
210682
210638
210608
210592
210590
210605
210635
210681
210744
210823
210919
211032
211162
211310
211476
211659
211859
212075
212309
212562
212827
213113
213416
213721
214057
214411
214785
215189
215645
216188
216833
217545
218182
218603
218785
218593
218957
219349
219171
219060
218910
218698
218450
218176
217889
217607
217332
217063
216800
216540
216285
216034
215790
215554
215328
215110
214896
214679
214461
214243
214026
213813
213604
213399
333104
334251
334383
335270
336363
337795
339400
341263
343257
345393
347627
349956
352362
354841
357387
359987
362625
365288
367960
370639
373319
375995
378663
381311
383927
386505
389042
391537
393996
396413
398787
401118
403413
405704
407964
410215
412389
414500
416528
418342
420078
421784
423472
425157
426833
428491
430135
431783
433453
435151
436864
438593
440364
442234
444243
446430
448819
451458
454415
457780
461645
466073
471160
476981
483607
491147
499639
509131
519674
531293
544030
557892
572926
589110
606489
625068
644904
666062
688676
712816
738617
766347
796402
829178
865479
906049
952790
1.00751e+06
1.07529e+06
1.16434e+06
1.21283e+06
779974
347198
215776
210123
210116
210115
210048
209946
209838
209742
209667
209610
209569
209542
209532
209538
209560
209599
209656
209729
209819
209926
210050
210191
210350
210525
210716
210924
211147
211386
211641
211909
212193
212494
212792
213120
213467
213834
214229
214674
215204
215839
216556
217221
217684
217943
217887
218210
218823
218877
218845
218761
218606
218403
218158
217884
217608
217334
217065
216800
216541
216285
216034
215790
215554
215328
215110
214896
214679
214461
214243
214026
213813
213604
213399
334778
335905
336189
336926
337983
339400
341035
342861
344833
346912
349082
351341
353682
356101
358590
361136
363721
366331
368953
371585
374225
376867
379506
382129
384717
387266
389769
392231
394659
397047
399397
401708
403984
406261
408507
410740
412894
414978
416979
418774
420486
422171
423843
425515
427181
428832
430478
432134
433813
435514
437222
438940
440697
442556
444556
446739
449127
451765
454718
458075
461928
466338
471408
477209
483817
491338
499803
509272
519794
531389
544098
557940
572961
589136
606498
625053
644877
666057
688719
712922
738836
766753
797001
829987
866456
907200
954072
1.00942e+06
1.07858e+06
1.16882e+06
1.19947e+06
742434
324921
213211
209096
209018
208934
208802
208668
208555
208464
208392
208337
208298
208276
208271
208284
208315
208364
208430
208514
208615
208734
208869
209021
209189
209374
209575
209791
210023
210268
210529
210801
211086
211389
211686
212007
212351
212716
213109
213552
214082
214724
215459
216158
216664
216990
217090
217387
218063
218472
218565
218546
218459
218314
218113
217865
217603
217334
217066
216802
216542
216286
216034
215790
215554
215328
215110
214896
214679
214461
214243
214026
213813
213604
213399
336698
337589
338081
338835
339903
341263
342861
344626
346550
348566
350675
352869
355148
357508
359939
362429
364956
367509
370077
372659
375256
377861
380467
383059
385614
388127
390594
393020
395415
397773
400096
402383
404636
406893
409121
411334
413466
415525
417498
419271
420958
422618
424269
425924
427579
429228
430883
432551
434235
435932
437625
439324
441066
442916
444908
447088
449475
452109
455057
458400
462236
466625
471675
477455
484048
491547
499984
509429
519926
531495
544177
558002
573001
589148
606477
625008
644830
666024
688707
712954
738979
767062
797473
830661
867225
908287
955602
1.0116e+06
1.08227e+06
1.17429e+06
1.179e+06
698912
301928
210557
207704
207582
207458
207311
207179
207072
206984
206914
206860
206825
206808
206811
206832
206872
206930
207008
207103
207216
207347
207494
207658
207838
208035
208247
208474
208716
208970
209240
209521
209814
210123
210425
210748
211097
211468
211868
212320
212862
213523
214282
215018
215563
215939
216196
216518
217150
217865
218185
218262
218249
218171
218028
217821
217584
217330
217067
216804
216543
216287
216035
215790
215554
215328
215110
214896
214679
214461
214243
214026
213813
213604
213399
338978
339605
340004
340823
341901
343257
344833
346550
348410
350355
352395
354522
356740
359041
361414
363845
366315
368811
371325
373857
376409
378973
381540
384094
386611
389084
391513
393901
396263
398590
400884
403143
405367
407599
409806
411996
414103
416133
418072
419817
421472
423101
424729
426369
428021
429679
431351
433030
434714
436396
438066
439744
441471
443315
445301
447480
449865
452495
455435
458761
462577
466942
471970
477730
484303
491779
500182
509598
520061
531598
544251
558051
573012
589109
606398
624917
644752
665974
688680
712995
739152
767391
797916
831255
868053
909521
957215
1.01446e+06
1.08673e+06
1.18051e+06
1.14628e+06
649592
279472
207891
206039
205911
205779
205634
205508
205403
205317
205249
205200
205171
205162
205174
205205
205256
205327
205417
205526
205653
205798
205959
206138
206332
206543
206769
207011
207266
207534
207817
208112
208417
208738
209052
209386
209747
210132
210546
211015
211577
212262
213046
213816
214396
214811
215197
215620
216183
217042
217623
217881
217966
217965
217891
217739
217540
217312
217064
216805
216546
216289
216036
215790
215554
215328
215110
214895
214679
214461
214243
214026
213813
213604
213399
341315
341762
342152
342998
344065
345393
346912
348566
350355
352234
354213
356282
358441
360685
363000
365376
367788
370229
372688
375168
377672
380190
382712
385222
387695
390127
392517
394871
397201
399496
401757
403983
406174
408375
410555
412718
414797
416791
418693
420401
422020
423618
425226
426861
428522
430198
431884
433568
435238
436894
438537
440192
441909
443749
445731
447910
450292
452915
455844
459152
462945
467285
472290
478025
484572
492018
500384
509766
520191
531691
544315
558083
572992
589037
606292
624808
644656
665896
688611
713014
739293
767616
798233
831812
868889
910873
959471
1.01767e+06
1.092e+06
1.18634e+06
1.10004e+06
593850
258749
205317
204193
204071
203938
203796
203674
203572
203491
203431
203391
203373
203376
203400
203445
203511
203598
203705
203830
203974
204136
204315
204511
204724
204952
205196
205454
205728
206013
206312
206624
206946
207284
207616
207964
208343
208745
209178
209667
210251
210958
211766
212565
213177
213623
214105
214665
215193
216096
216847
217333
217587
217688
217692
217608
217457
217268
217046
216802
216547
216291
216038
215792
215555
215329
215110
214895
214679
214461
214243
214026
213813
213604
213399
343769
344096
344491
345307
346344
347627
349082
350675
352395
354213
356132
358141
360242
362429
364687
367007
369364
371749
374154
376581
379032
381499
383968
386428
388854
391243
393597
395918
398215
400476
402700
404891
407044
409211
411362
413494
415542
417493
419351
421016
422597
424168
425768
427410
429090
430785
432477
434150
435795
437417
439031
440667
442377
444217
446196
448374
450749
453360
456277
459564
463335
467649
472627
478331
484845
492258
500583
509929
520310
531769
544359
558079
572933
588942
606168
624683
644531
665778
688524
713041
739399
767773
798581
832372
869937
912507
961763
1.02163e+06
1.09813e+06
1.19251e+06
1.03629e+06
534130
240287
202861
202217
202103
201970
201834
201719
201626
201556
201509
201483
201481
201501
201543
201607
201692
201799
201925
202071
202236
202418
202618
202834
203067
203315
203579
203857
204150
204454
204773
205104
205444
205801
206151
206517
206913
207334
207785
208293
208897
209624
210454
211274
211917
212392
212939
213620
214175
215095
215923
216588
217051
217311
217423
217419
217327
217187
217004
216786
216544
216293
216041
215794
215556
215329
215111
214895
214679
214461
214243
214026
213813
213604
213399
346308
346558
346965
347736
348731
349956
351341
352869
354522
356282
358141
360093
362137
364268
366470
368734
371035
373365
375716
378089
380484
382895
385306
387710
390088
392435
394754
397041
399303
401525
403706
405856
407969
410099
412215
414313
416325
418228
420036
421657
423205
424760
426367
428028
429730
431436
433118
434764
436372
437956
439543
441164
442869
444712
446687
448861
451225
453820
456721
459988
463735
468020
472971
478636
485111
492485
500764
510071
520406
531819
544371
558030
572838
588828
606016
624530
644366
665611
688426
713025
739408
767881
798925
833025
871115
914200
964546
1.02643e+06
1.10569e+06
1.19714e+06
956962
472220
224776
200525
200157
200051
199922
199797
199695
199619
199566
199537
199531
199549
199590
199654
199741
199849
199978
200128
200297
200484
200689
200910
201148
201402
201672
201956
202254
202567
202891
203228
203578
203936
204310
204679
205060
205473
205911
206379
206904
207526
208270
209118
209953
210628
211116
211722
212475
213101
214053
214922
215689
216329
216783
217054
217161
217142
217059
216925
216744
216528
216290
216043
215797
215559
215331
215111
214896
214679
214461
214243
214026
213813
213604
213399
348934
349123
349534
350251
351200
352362
353682
355148
356740
358441
360242
362137
364123
366196
368339
370544
372786
375058
377354
379670
382007
384357
386707
389055
391384
393691
395975
398227
400450
402629
404763
406872
408945
411037
413115
415175
417146
418998
420753
422334
423859
425413
427036
428718
430432
432131
433783
435388
436953
438501
440069
441680
443385
445229
447200
449367
451715
454290
457173
460417
464136
468391
473308
478928
485360
492686
500916
510184
520469
531837
544342
557932
572704
588678
605820
624341
644160
665408
688328
712929
739353
768042
799323
833794
872417
916139
968046
1.03186e+06
1.11451e+06
1.19475e+06
872528
410946
212397
198278
198059
197963
197844
197736
197654
197598
197566
197560
197577
197619
197685
197774
197885
198018
198171
198345
198537
198747
198975
199218
199478
199753
200042
200346
200663
200995
201337
201692
202058
202432
202822
203206
203602
204029
204481
204963
205503
206140
206899
207763
208608
209312
209796
210464
211240
211954
212966
213874
214698
215451
216075
216533
216808
216894
216875
216799
216666
216488
216275
216041
215799
215562
215333
215113
214896
214679
214461
214243
214026
213813
213604
213399
351630
351765
352177
352840
353739
354841
356101
357508
359041
360685
362429
364268
366196
368211
370292
372434
374615
376828
379066
381325
383602
385892
388180
390471
392751
395016
397262
399473
401649
403779
405862
407928
409962
412016
414055
416075
418003
419807
421512
423065
424578
426141
427782
429474
431178
432844
434450
436003
437529
439049
440605
442211
443915
445758
447721
449877
452206
454757
457620
460837
464525
468749
473626
479200
485587
492857
501037
510258
520486
531811
544258
557788
572532
588476
605581
624103
643891
665161
688175
712739
739315
768264
799738
834777
873731
918672
972198
1.03784e+06
1.1242e+06
1.18418e+06
787032
352049
203495
196104
195962
195877
195774
195687
195628
195596
195588
195607
195650
195717
195808
195922
196058
196215
196393
196590
196805
197037
197286
197551
197830
198124
198433
198754
199089
199437
199795
200165
200547
200935
201338
201736
202143
202581
203046
203540
204093
204743
205516
206391
207241
207965
208445
209161
209947
210740
211820
212776
213645
214470
215213
215832
216297
216556
216631
216620
216544
216412
216235
216026
215797
215564
215336
215115
214898
214680
214461
214243
214026
213813
213604
213399
354378
354469
354876
355488
356342
357387
358590
359939
361414
363000
364687
366470
368339
370292
372307
374383
376499
378650
380831
383032
385250
387482
389714
391952
394187
396411
398617
400782
402906
404983
407013
409035
411033
413050
415049
417028
418913
420674
422339
423872
425382
426954
428598
430275
431939
433549
435098
436599
438094
439597
441147
442751
444453
446291
448244
450387
452691
455217
458056
461242
464898
469091
473923
479448
485783
492986
501113
510274
520443
531725
544108
557597
572310
588203
605290
623790
643555
664877
687938
712537
739321
768492
800278
835884
875441
921750
976834
1.04508e+06
1.13554e+06
1.15331e+06
701846
299464
197471
193986
193890
193818
193733
193670
193635
193628
193646
193689
193758
193850
193966
194105
194265
194446
194646
194865
195101
195354
195623
195906
196204
196515
196841
197178
197528
197891
198263
198647
199042
199442
199857
200266
200683
201131
201606
202111
202675
203335
204119
205001
205856
206581
207072
207824
208613
209466
210609
211619
212538
213418
214243
214981
215605
216061
216302
216382
216371
216291
216161
215987
215783
215562
215339
215119
214901
214682
214462
214243
214026
213813
213604
213399
357161
357215
357617
358184
358996
359987
361136
362429
363845
365376
367007
368734
370544
372434
374383
376392
378442
380529
382648
384790
386949
389125
391303
393493
395684
397865
400026
402140
404208
406230
408208
410189
412152
414136
416097
418035
419880
421605
423241
424763
426271
427839
429462
431093
432693
434231
435724
437181
438655
440148
441695
443294
444991
446817
448754
450879
453156
455655
458470
461623
465246
469408
474186
479660
485933
493059
501133
510218
520325
531557
543876
557345
572011
587844
604936
623392
643160
664544
687614
712361
739353
768750
801029
837151
877618
925244
982189
1.05406e+06
1.14729e+06
1.09533e+06
610988
257674
193388
191915
191853
191793
191729
191690
191680
191697
191740
191809
191902
192019
192159
192321
192503
192706
192927
193166
193422
193694
193980
194281
194595
194923
195263
195616
195979
196355
196740
197135
197542
197953
198378
198797
199223
199680
200163
200677
201250
201918
202710
203592
204453
205168
205680
206464
207250
208143
209336
210398
211372
212304
213193
214019
214763
215384
215822
216058
216140
216124
216043
215914
215745
215549
215337
215121
214904
214685
214464
214243
214026
213813
213604
213399
359966
359985
360383
360913
361685
362625
363721
364956
366315
367788
369364
371035
372786
374615
376499
378442
380427
382451
384508
386591
388695
390818
392950
395096
397246
399384
401497
403557
405565
407534
409463
411403
413333
415285
417208
419104
420912
422603
424214
425724
427217
428760
430333
431894
433419
434886
436331
437756
439217
440704
442248
443842
445529
447336
449251
451351
453597
456064
458851
461964
465551
469675
474394
479814
486015
493061
501078
510077
520125
531295
543548
557000
571603
587390
604495
622909
642728
664179
687252
712248
739426
769143
801962
838638
880301
929257
988612
1.0646e+06
1.15807e+06
1.00331e+06
516506
227273
190448
189885
189849
189803
189761
189747
189761
189802
189869
189962
190078
190218
190381
190564
190768
190991
191231
191489
191763
192052
192355
192672
193002
193344
193698
194064
194441
194829
195225
195631
196048
196469
196902
197330
197763
198227
198718
199238
199818
200493
201290
202171
203036
203738
204271
205083
205863
206785
208013
209119
210145
211130
212076
212973
213808
214554
215161
215587
215824
215899
215878
215798
215673
215512
215324
215120
214907
214688
214467
214245
214027
213813
213604
213399
362782
362770
363167
363664
364398
365288
366331
367509
368811
370229
371749
373365
375058
376828
378650
380529
382451
384409
386404
388427
390476
392552
394641
396748
398858
400951
403015
405021
406972
408891
410775
412680
414578
416496
418382
420234
422002
423656
425241
426730
428191
429685
431190
432671
434125
435533
436946
438349
439800
441279
442816
444398
446067
447842
449724
451792
453993
456425
459179
462249
465797
469876
474533
479900
486016
492981
500931
509836
519825
530916
543105
556528
571070
586844
603953
622355
642261
663769
686927
712237
739615
769716
803129
840480
883454
933980
996343
1.07711e+06
1.16386e+06
889442
426497
206421
188096
187892
187877
187845
187826
187835
187874
187938
188029
188144
188283
188445
188628
188832
189055
189297
189556
189832
190123
190428
190747
191079
191423
191779
192147
192525
192914
193313
193720
194136
194562
194991
195432
195866
196306
196776
197272
197798
198383
199064
199865
200749
201612
202300
202850
203681
204456
205401
206651
207790
208860
209896
210896
211855
212764
213604
214342
214939
215362
215593
215659
215636
215560
215441
215288
215108
214906
214691
214470
214248
214029
213814
213604
213399
365601
365557
365953
366423
367119
367960
368953
370077
371325
372688
374154
375716
377354
379066
380831
382648
384508
386404
388336
390301
392296
394325
396374
398442
400514
402561
404575
406528
408424
410297
412142
414011
415876
417758
419601
421402
423121
424731
426281
427730
429140
430571
432005
433416
434816
436188
437582
438974
440416
441887
443413
444978
446619
448348
450185
452206
454359
456752
459460
462476
465972
469987
474571
479873
485899
492787
500664
509482
519416
530426
542563
555938
570433
586216
603316
621751
641791
663405
686734
712317
739980
770539
804627
842799
887234
939634
1.00548e+06
1.0916e+06
1.15439e+06
774180
345691
193740
186004
185933
185932
185917
185920
185954
186015
186103
186216
186353
186513
186696
186899
187123
187365
187625
187902
188194
188501
188822
189156
189502
189861
190230
190610
191001
191400
191810
192226
192651
193085
193522
193969
194409
194854
195328
195829
196359
196949
197636
198441
199330
200184
200856
201418
202263
203034
203997
205259
206418
207524
208605
209657
210672
211645
212561
213400
214132
214723
215142
215362
215422
215400
215330
215220
215073
214894
214691
214473
214252
214032
213816
213605
213399
368420
368340
368732
369183
369842
370639
371585
372659
373857
375168
376581
378089
379670
381325
383032
384790
386591
388427
390301
392211
394156
396139
398148
400176
402206
404207
406169
408072
409917
411748
413558
415393
417220
419056
420847
422585
424243
425796
427298
428688
430040
431410
432786
434150
435521
436878
438265
439652
441083
442540
444046
445582
447184
448849
450626
452589
454687
457032
459681
462629
466056
469989
474496
479726
485666
492485
500279
509017
518895
529831
541923
555235
569707
585521
602628
621155
641345
663090
686650
712494
740636
771664
806402
845754
891820
946458
1.01627e+06
1.10818e+06
1.11217e+06
664468
278635
186808
184017
184003
184014
184016
184043
184100
184184
184294
184429
184588
184769
184971
185194
185436
185697
185974
186268
186577
186900
187236
187584
187945
188317
188699
189091
189493
189903
190322
190747
191180
191622
192064
192517
192961
193410
193888
194392
194926
195520
196212
197021
197905
198740
199406
199977
200831
201599
202577
203843
205016
206148
207264
208360
209427
210457
211439
212360
213198
213925
214513
214923
215134
215191
215173
215111
215005
214860
214679
214473
214255
214036
213819
213607
213400
371229
371113
371497
371932
372560
373319
374225
375256
376409
377672
379032
380484
382007
383602
385250
386949
388695
390476
392296
394156
396052
397990
399957
401941
403924
405876
407785
409640
411440
413233
415009
416807
418592
420372
422099
423763
425344
426825
428265
429584
430882
432202
433543
434886
436249
437608
438996
440385
441806
443246
444726
446220
447764
449350
451064
452966
455000
457285
459854
462718
466054
469883
474299
479441
485292
492043
499748
508422
518248
529134
541207
554467
568952
584805
601961
620584
640923
662872
686723
712840
741473
773182
808662
849374
897162
954700
1.02902e+06
1.12507e+06
1.02433e+06
549896
231933
182929
182079
182101
182122
182145
182195
182275
182381
182513
182669
182848
183049
183271
183513
183773
184051
184346
184656
184982
185320
185672
186035
186409
186794
187189
187593
188005
188425
188853
189286
189726
190173
190621
191078
191526
191978
192458
192964
193501
194098
194790
195598
196474
197296
197955
198530
199388
200153
201142
202409
203589
204738
205881
207013
208124
209205
210247
211237
212162
213000
213724
214305
214707
214911
214969
214956
214899
214794
214646
214462
214255
214039
213823
213610
213402
374022
373872
374245
374668
375268
375995
376867
377861
378973
380190
381499
382895
384357
385892
387482
389125
390818
392552
394325
396139
397990
399883
401805
403739
405671
407567
409420
411228
412985
414739
416479
418234
419966
421680
423333
424912
426403
427806
429174
430425
431683
432973
434301
435646
437013
438382
439773
441160
442568
443981
445419
446858
448328
449832
451473
453305
455264
457474
459944
462710
465937
469651
473972
479016
484787
491475
499099
507726
517503
528363
540430
553671
568186
584097
601333
620100
640567
662765
686917
713364
742578
775126
811515
853693
903541
964951
1.04436e+06
1.13642e+06
896771
437953
202561
180383
180178
180226
180258
180303
180376
180478
180606
180759
180936
181135
181356
181597
181857
182135
182431
182743
183070
183412
183766
184133
184511
184899
185297
185703
186118
186541
186970
187406
187846
188292
188745
189196
189657
190106
190560
191041
191549
192086
192682
193375
194176
195046
195853
196501
197079
197937
198698
199698
200961
202143
203303
204463
205621
206769
207895
208989
210041
211040
211968
212804
213525
214099
214494
214697
214757
214748
214690
214582
214430
214244
214039
213826
213614
213405
376791
376609
376969
377385
377962
378663
379506
380467
381540
382712
383968
385306
386707
388180
389714
391303
392950
394641
396374
398148
399957
401805
403677
405557
407430
409268
411065
412828
414547
416263
417962
419664
421332
422969
424536
426027
427422
428742
430036
431231
432462
433739
435072
436430
437810
439192
440583
441963
443343
444710
446085
447455
448853
450277
451840
453589
455458
457573
459928
462586
465695
469293
473516
478454
484146
490763
498311
506904
516641
527497
539592
552858
567443
583418
600805
619717
640329
662797
687329
714192
743940
777376
815028
858723
911037
976966
1.06344e+06
1.12906e+06
761965
340382
186314
178331
178315
178376
178424
178490
178586
178710
178860
179033
179230
179449
179689
179949
180228
180524
180838
181168
181512
181870
182241
182623
183016
183418
183828
184247
184673
185104
185542
185985
186431
186883
187339
187794
188256
188706
189161
189641
190147
190682
191277
191967
192764
193628
194417
195048
195626
196480
197238
198246
199503
200683
201846
203016
204194
205369
206533
207672
208778
209841
210846
211777
212611
213328
213898
214290
214491
214551
214542
214480
214367
214213
214029
213827
213617
213409
379527
379314
379662
380072
380632
381311
382129
383059
384094
385222
386428
387710
389055
390471
391952
393493
395096
396748
398442
400176
401941
403739
405557
407376
409187
410964
412705
414424
416108
417787
419439
421077
422669
424222
425698
427104
428408
429651
430880
432036
433250
434525
435868
437241
438628
440010
441384
442732
444055
445345
446647
447948
449273
450614
452093
453747
455515
457522
459753
462302
465291
468774
472894
477725
483344
489894
497395
505984
515706
526588
538719
552058
566727
582810
600352
619489
640282
663053
687964
715347
745751
780004
819228
864776
920244
990411
1.08464e+06
1.07707e+06
635198
263172
178760
176435
176484
176555
176619
176708
176826
176972
177142
177336
177553
177791
178051
178330
178628
178944
179276
179624
179987
180362
180750
181148
181555
181971
182395
182825
183261
183702
184147
184596
185047
185503
185962
186418
186881
187329
187783
188260
188763
189295
189886
190574
191377
192223
192991
193602
194178
195024
195776
196788
198036
199210
200373
201548
202737
203933
205125
206302
207455
208573
209645
210656
211587
212421
213135
213703
214093
214292
214350
214335
214267
214152
213998
213817
213617
213412
382226
381983
382317
382725
383269
383927
384717
385614
386611
387695
388854
390088
391384
392751
394187
395684
397246
398858
400514
402206
403924
405671
407430
409187
410934
412654
414343
416020
417669
419306
420902
422465
423968
425425
426807
428130
429357
430533
431708
432838
434041
435317
436666
438042
439422
440784
442111
443396
444647
445857
447078
448312
449554
450793
452169
453714
455371
457260
459363
461802
464672
468052
472077
476817
482385
488882
496364
504960
514689
525610
537799
551244
566051
582267
600028
619383
640501
663571
688976
716904
748155
783360
823988
872164
931081
1.00748e+06
1.10278e+06
967799
503988
214159
175111
174599
174682
174762
174845
174957
175097
175263
175454
175668
175905
176164
176443
176743
177061
177397
177749
178117
178499
178893
179298
179713
180136
180566
181002
181443
181889
182338
182790
183245
183700
184158
184618
185074
185536
185981
186432
186905
187403
187930
188519
189204
190001
190827
191573
192163
192735
193570
194314
195327
196561
197727
198887
200062
201257
202467
203680
204886
206077
207243