/*--------------------------------*- C++ -*----------------------------------*\
  =========                 |
  \\      /  F ield         | OpenFOAM: The Open Source CFD Toolbox
   \\    /   O peration     | Website:  https://openfoam.org
    \\  /    A nd           | Version:  13
     \\/     M anipulation  |
\*---------------------------------------------------------------------------*/
FoamFile
{
    format      ascii;
    class       surfaceScalarField;
    location    "0.0017";
    object      phi;
}
// * * * * * * * * * * * * * * * * * * * * * * * * * * * * * * * * * * * * * //

dimensions      [1 0 -1 0 0 0 0];

internalField   nonuniform List<scalar> 
66301
(
0.00696721
0.00696721
0.0143326
0.00662419
0.0213718
0.00698912
0.0288847
0.00678898
0.0363674
0.00681267
0.0440569
0.00657013
0.0511281
0.0075345
0.0568672
0.00885823
0.0629935
0.0087514
0.0702907
0.00783837
0.0785081
0.00721412
0.0872534
0.00702579
0.0963202
0.00703405
0.105611
0.00712705
0.115084
0.00725589
0.124712
0.00741531
0.13448
0.00759216
0.14439
0.00776016
0.154405
0.00793688
0.164481
0.00813771
0.174557
0.00838753
0.184594
0.0086676
0.19458
0.00894424
0.204522
0.00918876
0.214437
0.00936603
0.224293
0.00949793
0.234016
0.00961248
0.243553
0.00968399
0.252836
0.00972062
0.261745
0.00976578
0.270154
0.00980852
0.27792
0.00984822
0.284874
0.00990591
0.290829
0.0100047
0.295582
0.0101978
0.299082
0.0103704
0.30131
0.0106492
0.302553
0.0108811
0.302642
0.0110165
0.302346
0.011137
0.30154
0.011321
0.300328
0.0114875
0.298829
0.0116461
0.297234
0.0117552
0.295674
0.0118604
0.294232
0.0119601
0.292973
0.012023
0.291904
0.0120704
0.290937
0.0121942
0.290025
0.0123623
0.289203
0.0125119
0.28859
0.0126057
0.288423
0.0126634
0.28848
0.0127612
0.28876
0.012933
0.28937
0.0131863
0.290474
0.0134829
0.29228
0.0137782
0.295008
0.014049
0.298904
0.0142666
0.304107
0.0145498
0.310856
0.0148289
0.319443
0.0150441
0.330075
0.0152868
0.343054
0.0154677
0.35853
0.0157106
0.376693
0.015977
0.397631
0.0163135
0.421404
0.0167376
0.448181
0.0171216
0.477979
0.0175979
0.510872
0.0181272
0.546883
0.0187429
0.586133
0.0193381
0.628612
0.0200292
0.674529
0.0206793
0.724197
0.0212155
0.778003
0.0216367
0.836752
0.0215681
0.901262
0.0210827
0.972587
0.0198447
1.05003
0.0187909
1.14093
0.00256828
1.23626
0.010313
1.33999
0.0111619
1.45309
0.00576958
1.57919
0.029247
1.75022
0.0350074
1.98223
0.0380617
2.32624
0.0416018
2.53542
0.0354868
2.52321
0.0318954
0.705605
0.0134876
0.377385
0.0169874
0.374509
0.0123726
0.374391
0.0118866
0.373848
0.0113687
0.372891
0.0107356
0.371638
0.00995537
0.369908
0.00785283
0.367497
0.0047959
0.364105
0.00849144
0.362834
0.0102797
0.36218
0.0103306
0.361376
0.0102856
0.360535
0.0102579
0.359755
0.0102043
0.359029
0.0101155
0.358338
0.0100141
0.357676
0.00990129
0.357042
0.00977696
0.356434
0.00964111
0.35585
0.00949336
0.35529
0.00933424
0.354754
0.00916404
0.354243
0.00898121
0.353754
0.0087884
0.353288
0.00858708
0.352842
0.00837533
0.352404
0.0081699
0.351985
0.00793789
0.351556
0.0077104
0.35116
0.00746976
0.350916
0.00714745
0.350891
0.00687996
0.351217
0.00658815
0.352261
0.00636729
0.354792
0.00605535
0.360065
0.00570382
0.369997
0.0053376
0.387335
0.00498132
0.415725
0.00463591
0.459466
0.00430526
0.522281
0.00384622
0.603807
0.00333972
0.694777
0.0031164
0.773584
0.00153729
0.822698
0.00121663
0.843532
0.000687473
0.845163
0.000106284
0.843427
0.000198545
0.840908
0.000100381
0.838089
2.88704e-05
0.83513
-6.43073e-07
0.832307
-1.12426e-05
0.829666
-1.26442e-05
0.827204
-1.14913e-05
0.824971
-9.91754e-06
0.822935
-8.55453e-06
0.821009
-7.72026e-06
0.81911
-7.36579e-06
0.81719
-7.28007e-06
0.815244
-7.23809e-06
0.813289
-7.19071e-06
0.811346
-7.12552e-06
0.809431
-7.05271e-06
0.807557
-6.98805e-06
0.805731
-6.93836e-06
0.80396
-6.90255e-06
0.802237
-6.87329e-06
0.800551
-6.8469e-06
0.798889
-6.8206e-06
0.797247
-6.78414e-06
0.795627
-6.72972e-06
0.794029
-6.68214e-06
-6.66287e-06
0.00662419
0.0143326
0.0136112
0.0136112
0.0202343
0.0144165
0.0272878
0.0136481
0.0349765
0.013385
0.0431438
0.0128397
0.0525832
0.0129237
0.0620301
0.0141542
0.0711794
0.014509
0.0799897
0.0142355
0.0887405
0.0140107
0.0976416
0.0140136
0.10677
0.0141157
0.116139
0.0142735
0.12577
0.0144373
0.135668
0.0146329
0.145801
0.0148846
0.156158
0.0151382
0.166713
0.0154136
0.177444
0.0157081
0.188309
0.0160727
0.19927
0.0164911
0.210304
0.0169111
0.221367
0.0173137
0.232418
0.0176434
0.24341
0.017902
0.254264
0.0181355
0.26488
0.0183323
0.275133
0.0185203
0.284893
0.0187404
0.294045
0.0189485
0.302416
0.019176
0.309802
0.0194711
0.316024
0.0198361
0.320927
0.0203423
0.324554
0.0207244
0.326918
0.0212685
0.328341
0.021654
0.328582
0.0219506
0.3285
0.0221345
0.327981
0.0224074
0.327109
0.0226687
0.32601
0.0229133
0.32481
0.0231193
0.323622
0.0233371
0.322558
0.0235245
0.321633
0.0236876
0.320808
0.0238692
0.32007
0.0241375
0.319413
0.0244383
0.318861
0.0246859
0.318523
0.024888
0.318501
0.0251103
0.318628
0.0253551
0.318934
0.0257539
0.319551
0.0262669
0.320702
0.0267919
0.322587
0.0273108
0.325424
0.0277804
0.329434
0.0281632
0.334742
0.028692
0.341631
0.0291705
0.350283
0.0296254
0.360854
0.0301942
0.373617
0.0306734
0.388689
0.0313245
0.406231
0.0320485
0.426539
0.0327286
0.449727
0.0335172
0.47582
0.0343807
0.505177
0.0351332
0.53791
0.0359668
0.574044
0.0370365
0.613799
0.0380456
0.657438
0.0390313
0.704625
0.0404614
0.755324
0.0420412
0.809388
0.0438517
0.866129
0.0460963
0.925082
0.0488182
0.98787
0.0499502
1.058
0.0491601
1.133
0.0417508
1.22316
0.0392515
1.32621
0.0403548
1.44778
0.0459829
1.60208
0.0600907
1.78229
0.0661688
2.01608
0.0712395
2.35798
0.0789348
2.59076
0.0860289
2.59118
0.0715819
0.751182
0.0408427
0.37655
0.0238039
0.372186
0.0213663
0.371219
0.0203925
0.369724
0.0194771
0.367956
0.0186779
0.366371
0.0185208
0.365914
0.0181552
0.365829
0.0187705
0.367336
0.020746
0.367285
0.021075
0.366564
0.0210219
0.365911
0.0208876
0.365383
0.0207566
0.364857
0.0205914
0.364318
0.020372
0.363784
0.0201358
0.363259
0.019881
0.362745
0.0196065
0.362241
0.0193121
0.361749
0.0189972
0.361268
0.0186628
0.3608
0.0183098
0.360346
0.017936
0.359904
0.0175479
0.359472
0.0171445
0.359049
0.016719
0.358636
0.0162888
0.358236
0.0158199
0.357812
0.0153667
0.357413
0.0148805
0.357092
0.0142997
0.356935
0.0137496
0.357111
0.0132028
0.357977
0.0127603
0.36023
0.0122193
0.3651
0.0116192
0.374486
0.0110083
0.391173
0.0103751
0.418789
0.00980485
0.461797
0.00913982
0.524157
0.00812799
0.605345
0.00686078
0.695128
0.00552303
0.772587
0.00383732
0.821542
0.00284996
0.843072
0.00166466
0.845052
0.00052288
0.843597
0.000367014
0.841168
0.000156776
0.838378
4.85366e-05
0.835425
3.25086e-06
0.832598
-1.14737e-05
0.829949
-1.67297e-05
0.827475
-1.3415e-05
0.825231
-1.0369e-05
0.823184
-8.42321e-06
0.821249
-7.46325e-06
0.819342
-7.10985e-06
0.817414
-7.04143e-06
0.81546
-6.9859e-06
0.813498
-6.93585e-06
0.811548
-6.8396e-06
0.809626
-6.73733e-06
0.807744
-6.64686e-06
0.805911
-6.57633e-06
0.804132
-6.52325e-06
0.802402
-6.48079e-06
0.800708
-6.44683e-06
0.799039
-6.41107e-06
0.797391
-6.35671e-06
0.795763
-6.28238e-06
0.794158
-6.29328e-06
-6.23131e-06
0.00698912
0.0213718
0.0144165
0.0202343
0.0214748
0.0214748
0.0279089
0.0213574
0.0347089
0.0208335
0.0416852
0.0202463
0.0494645
0.0194949
0.0583148
0.0201281
0.0672026
0.0206705
0.0757978
0.0209895
0.0843534
0.0211243
0.0930847
0.0212806
0.102064
0.0214514
0.111308
0.0216512
0.120839
0.0218387
0.130648
0.0220715
0.140703
0.0223974
0.150989
0.0227312
0.161489
0.0230929
0.172177
0.0234773
0.183009
0.0239484
0.19395
0.0244873
0.204977
0.0250284
0.216044
0.0255633
0.227103
0.0260239
0.238099
0.0263998
0.24894
0.0267587
0.25951
0.0271042
0.269684
0.0274706
0.279336
0.0278893
0.288339
0.0282968
0.296514
0.0287567
0.303663
0.0293257
0.309638
0.0299627
0.314325
0.0307433
0.317766
0.0313122
0.320012
0.0320384
0.321339
0.0325458
0.321601
0.0329093
0.321485
0.0331826
0.320992
0.033526
0.32016
0.0338569
0.319108
0.0341767
0.317957
0.034476
0.316823
0.0347952
0.315793
0.0350783
0.314865
0.0353699
0.314028
0.0356989
0.313296
0.036103
0.312665
0.0365163
0.312133
0.0368694
0.311778
0.0372099
0.311645
0.0376162
0.311639
0.0381142
0.311806
0.0387727
0.312323
0.0395108
0.313403
0.0402338
0.315249
0.0409502
0.318071
0.0416043
0.32207
0.0421657
0.327408
0.0429219
0.334345
0.0436034
0.34306
0.0443146
0.353747
0.0451877
0.366634
0.0459717
0.381859
0.0469945
0.399606
0.0481099
0.4201
0.0491293
0.443465
0.0502755
0.469759
0.0515722
0.49919
0.0526849
0.531815
0.0539607
0.567739
0.0555269
0.607111
0.0570172
0.650137
0.0584115
0.696874
0.0603879
0.747696
0.0624126
0.80306
0.0644921
0.86364
0.066713
0.929964
0.069364
1.0024
0.0707866
1.08101
0.0714189
1.1651
0.0721167
1.25736
0.0733066
1.36336
0.0769073
1.4886
0.0830782
1.63553
0.0896321
1.81145
0.0977491
2.03672
0.106613
2.35983
0.116578
2.55691
0.126578
2.5403
0.118034
0.711688
0.0641879
0.372326
0.0331412
0.368486
0.0307095
0.36764
0.0301513
0.366684
0.0298904
0.365815
0.0300049
0.365308
0.0305944
0.364921
0.0311191
0.364555
0.0316588
0.364168
0.0317617
0.363404
0.0316003
0.362645
0.0313683
0.361963
0.0311189
0.361316
0.0308543
0.360683
0.030555
0.360067
0.0302165
0.35947
0.0298557
0.358891
0.0294697
0.358332
0.0290567
0.35779
0.0286163
0.357267
0.0281471
0.356762
0.0276502
0.356277
0.0271262
0.355814
0.0265722
0.355375
0.0259953
0.354962
0.0253879
0.354567
0.0247483
0.35419
0.0240888
0.353822
0.0233947
0.353464
0.0227
0.353143
0.0219599
0.352889
0.0211436
0.352795
0.0203206
0.353074
0.019516
0.354087
0.0188088
0.35651
0.0180304
0.361571
0.0171723
0.371187
0.0162776
0.388133
0.0153316
0.416138
0.0143922
0.459602
0.0132787
0.522163
0.0118304
0.603147
0.0101437
0.692762
0.00827061
0.770433
0.00623977
0.819489
0.00476322
0.841871
0.00298643
0.844344
0.00106319
0.843199
0.000790406
0.84098
0.00040006
0.838314
0.000163637
0.83542
4.30091e-05
0.832606
-4.06625e-06
0.829954
-1.63759e-05
0.827479
-1.7172e-05
0.825233
-1.29267e-05
0.823185
-9.56311e-06
0.821249
-7.76734e-06
0.819342
-7.0253e-06
0.817414
-6.80745e-06
0.81546
-6.78922e-06
0.813498
-6.74496e-06
0.811548
-6.65431e-06
0.809626
-6.54703e-06
0.807744
-6.44254e-06
0.805911
-6.354e-06
0.804132
-6.28324e-06
0.802402
-6.22484e-06
0.800708
-6.17691e-06
0.799039
-6.12923e-06
0.797391
-6.07311e-06
0.795763
-6.02454e-06
0.794158
-5.99197e-06
-5.9332e-06
0.00678898
0.0288847
0.0136481
0.0272878
0.0213574
0.0279089
0.0285634
0.0285634
0.035749
0.0281494
0.0428307
0.0277604
0.0498536
0.027019
0.0576673
0.0272007
0.0658067
0.0276867
0.0741371
0.0281409
0.0826909
0.0283748
0.0915073
0.0285919
0.100579
0.0288199
0.109902
0.0290818
0.119489
0.0293267
0.129339
0.0296274
0.139425
0.0300485
0.149732
0.0304823
0.160236
0.0309453
0.170918
0.0314321
0.181741
0.0320156
0.192673
0.0326703
0.203692
0.0333203
0.214748
0.0339772
0.225777
0.0345753
0.236712
0.0350908
0.247455
0.0356081
0.25789
0.0361397
0.267901
0.0367127
0.277376
0.0373445
0.286198
0.0379533
0.294198
0.0386319
0.301198
0.0394385
0.307079
0.0402834
0.311733
0.0412646
0.315193
0.0419655
0.317515
0.0427962
0.31891
0.0434072
0.319298
0.0438625
0.31919
0.0442478
0.31872
0.0446622
0.317911
0.0450727
0.316868
0.0454727
0.315722
0.0458595
0.314593
0.0462719
0.313562
0.0466473
0.312634
0.0470627
0.311806
0.0475349
0.311082
0.0480766
0.310448
0.0486096
0.309885
0.0491035
0.309445
0.0496128
0.309162
0.0502179
0.309041
0.0509559
0.309178
0.051826
0.309738
0.0527217
0.310894
0.0535973
0.312833
0.0544799
0.315748
0.0553062
0.319825
0.0560538
0.325252
0.0570236
0.332269
0.0579181
0.341059
0.058901
0.35184
0.0600626
0.364782
0.0611724
0.380043
0.0625741
0.397817
0.0640692
0.418274
0.0654751
0.441555
0.067011
0.467766
0.0687219
0.497078
0.0702131
0.529547
0.0719636
0.565374
0.0739616
0.604671
0.0758913
0.647589
0.0777289
0.694299
0.0801924
0.745168
0.0826049
0.800476
0.085114
0.860692
0.0877103
0.926112
0.0909141
0.996938
0.0934056
1.0734
0.0960296
1.15707
0.0991869
1.25001
0.103188
1.35573
0.10772
1.4783
0.11348
1.62377
0.120611
1.80237
0.129502
2.03437
0.139612
2.36838
0.152934
2.56899
0.171302
2.4858
0.156823
0.665874
0.0815963
0.3696
0.0430991
0.366653
0.0412264
0.366301
0.0413133
0.365882
0.0416051
0.36536
0.0420231
0.364873
0.0423969
0.364358
0.0425204
0.36377
0.0423505
0.363027
0.0419904
0.362277
0.0416541
0.361579
0.0413135
0.360914
0.0409526
0.360266
0.0405635
0.359633
0.0401446
0.359019
0.0396981
0.358423
0.0392217
0.357845
0.0387129
0.357283
0.0381697
0.356739
0.0375919
0.356212
0.0369772
0.355703
0.0363271
0.355212
0.0356415
0.354741
0.0349179
0.354292
0.0341623
0.353868
0.0333642
0.353458
0.0325283
0.353055
0.0316595
0.352653
0.0307581
0.352261
0.0298374
0.351895
0.0288614
0.351592
0.0278233
0.35142
0.0267609
0.351638
0.0256973
0.352616
0.0247002
0.355007
0.0236932
0.360031
0.0225892
0.369608
0.0214137
0.386497
0.0201556
0.414405
0.0188444
0.457673
0.0173104
0.519872
0.0154756
0.600361
0.0134793
0.689656
0.0113269
0.767401
0.00881238
0.816551
0.00702238
0.839777
0.0047985
0.842987
0.00190116
0.842402
0.00144223
0.840549
0.000838181
0.838115
0.00040651
0.835357
0.000156889
0.832602
3.37449e-05
0.829963
-8.26741e-06
0.827486
-1.72979e-05
0.825238
-1.77227e-05
0.823188
-1.32059e-05
0.82125
-9.57963e-06
0.819342
-7.67104e-06
0.817414
-6.83343e-06
0.81546
-6.62679e-06
0.813498
-6.624e-06
0.811548
-6.56018e-06
0.809626
-6.47762e-06
0.807744
-6.37871e-06
0.805911
-6.27983e-06
0.804132
-6.19198e-06
0.802402
-6.11515e-06
0.800708
-6.05015e-06
0.799039
-5.988e-06
0.797391
-5.92546e-06
0.795763
-5.87482e-06
0.794158
-5.82502e-06
-5.77532e-06
0.00681267
0.0363674
0.013385
0.0349765
0.0208335
0.0347089
0.0281494
0.035749
0.0354705
0.0354705
0.0427781
0.0352413
0.0499052
0.0347735
0.0576042
0.0346204
0.0656468
0.0350422
0.0740526
0.0354441
0.0827614
0.0356929
0.091753
0.0359485
0.101003
0.0362396
0.110501
0.0365822
0.120251
0.0369151
0.130248
0.0373121
0.140471
0.0378459
0.150906
0.0383924
0.161521
0.0389755
0.172293
0.0395831
0.183183
0.0402949
0.194155
0.041079
0.205185
0.0418489
0.216219
0.0426401
0.227183
0.0434005
0.238006
0.0440892
0.248592
0.0448006
0.258832
0.0455488
0.268629
0.0463414
0.277884
0.047184
0.286499
0.0479752
0.294325
0.0488291
0.301214
0.0497997
0.307071
0.0507514
0.311778
0.0518431
0.315355
0.0525995
0.317836
0.0534862
0.319395
0.0541764
0.319981
0.0547856
0.319926
0.0553062
0.319481
0.0558184
0.318675
0.0563455
0.3176
0.0568602
0.316393
0.0573504
0.315184
0.0578641
0.314061
0.0583395
0.313047
0.0588765
0.312157
0.0594778
0.311368
0.0601573
0.310648
0.0608294
0.30996
0.0615032
0.309339
0.0621991
0.308855
0.0629932
0.308607
0.0639097
0.308719
0.0649211
0.309315
0.0659184
0.310529
0.0669189
0.312526
0.0679526
0.315479
0.0689565
0.319564
0.0699077
0.324998
0.0710826
0.332003
0.0722009
0.340793
0.0734407
0.35163
0.0748274
0.364648
0.0762261
0.380062
0.0779195
0.398063
0.0797077
0.418766
0.0814779
0.442309
0.0833875
0.468801
0.0854937
0.498371
0.0873903
0.53107
0.0896502
0.567125
0.0920771
0.606605
0.0944945
0.649632
0.0968871
0.696408
0.0999226
0.74723
0.102859
0.802251
0.106044
0.861871
0.109317
0.926691
0.113135
0.997289
0.116412
1.07417
0.120389
1.15895
0.124689
1.25352
0.129938
1.36056
0.135608
1.48385
0.142963
1.63025
0.15113
1.80983
0.161035
2.04328
0.173419
2.37934
0.191219
2.57913
0.214026
2.3994
0.192516
0.61541
0.0961356
0.368643
0.0538781
0.36649
0.0525449
0.366396
0.0527957
0.366039
0.0529849
0.36542
0.0530319
0.36472
0.052858
0.363943
0.0524951
0.363107
0.052032
0.36229
0.0515855
0.361524
0.0511588
0.360789
0.0507191
0.360072
0.0502518
0.359373
0.0497547
0.358693
0.0492276
0.358033
0.0486669
0.357391
0.0480703
0.356766
0.0474355
0.356159
0.0467606
0.355568
0.0460454
0.354996
0.0452873
0.35444
0.0444882
0.353903
0.0436468
0.353386
0.0427622
0.35289
0.0418386
0.352417
0.0408668
0.351961
0.0398541
0.351511
0.0387974
0.351063
0.0377081
0.350629
0.0365819
0.350216
0.0353985
0.349871
0.0341575
0.349665
0.0328758
0.349833
0.0315773
0.350766
0.0303114
0.353122
0.0290893
0.3581
0.0277684
0.367615
0.0263438
0.384411
0.0248082
0.412164
0.0231672
0.455143
0.0213054
0.516914
0.0192254
0.596942
0.0170396
0.685901
0.0145884
0.763636
0.0116783
0.812807
0.00960178
0.83661
0.00705344
0.841079
0.00336404
0.841099
0.00220982
0.839787
0.00150047
0.837699
0.000839007
0.835165
0.000399984
0.832543
0.000143522
0.829964
2.64807e-05
0.827496
-1.10343e-05
0.825246
-1.75189e-05
0.823194
-1.95008e-05
0.821254
-1.37563e-05
0.819343
-9.7125e-06
0.817414
-7.62309e-06
0.81546
-6.75627e-06
0.813498
-6.57089e-06
0.811548
-6.51592e-06
0.809626
-6.45324e-06
0.807744
-6.37285e-06
0.805911
-6.27885e-06
0.804132
-6.18481e-06
0.802402
-6.09367e-06
0.800708
-6.01353e-06
0.799039
-5.94203e-06
0.79739
-5.87554e-06
0.795763
-5.81902e-06
0.794158
-5.76519e-06
-5.71421e-06
0.00657013
0.0440569
0.0128397
0.0431438
0.0202463
0.0416852
0.0277604
0.0428307
0.0352413
0.0427781
0.0427217
0.0427217
0.0500933
0.042561
0.0577596
0.0423119
0.0657869
0.0426534
0.0742151
0.042955
0.0829451
0.0432249
0.0919562
0.043532
0.101234
0.0438987
0.110772
0.0443341
0.120561
0.0447714
0.130594
0.0452761
0.140855
0.0459238
0.151332
0.0465788
0.16199
0.0472822
0.172802
0.0480094
0.183729
0.0488434
0.194731
0.0497512
0.205777
0.0506366
0.216814
0.0515566
0.227767
0.052478
0.23857
0.0533367
0.249137
0.0542322
0.259369
0.0551779
0.269179
0.0561609
0.278464
0.0571891
0.287121
0.0581425
0.294999
0.0591503
0.301951
0.0602595
0.30788
0.0612943
0.312648
0.0624939
0.316256
0.0633247
0.318738
0.0642933
0.320262
0.0651019
0.320803
0.0658601
0.320705
0.0664975
0.320174
0.0671189
0.319284
0.0677469
0.318141
0.0683504
0.316888
0.0689166
0.315649
0.0695153
0.314506
0.0700846
0.313493
0.0707408
0.312624
0.0714616
0.311852
0.0722811
0.311131
0.0731026
0.310423
0.0739587
0.30976
0.0748325
0.309242
0.0757927
0.309008
0.0768492
0.309177
0.077971
0.309845
0.0790607
0.311115
0.0801996
0.313151
0.0813939
0.316114
0.0825894
0.320186
0.083757
0.325606
0.0851253
0.332581
0.086472
0.341354
0.0879498
0.352194
0.0895267
0.365225
0.0912006
0.380694
0.093129
0.398766
0.0951873
0.419539
0.0973161
0.443164
0.0995882
0.46974
0.10209
0.499374
0.104416
0.532127
0.107178
0.568227
0.110014
0.607731
0.112938
0.650802
0.115888
0.697695
0.119436
0.748672
0.122841
0.803925
0.126615
0.863949
0.130437
0.929293
0.134847
1.00041
0.139035
1.07805
0.144228
1.16369
0.149645
1.25907
0.155994
1.36702
0.162867
1.49124
0.171605
1.6385
0.181025
1.81957
0.19272
2.05753
0.207261
2.40215
0.230963
2.59506
0.255757
2.28706
0.225766
0.562883
0.108237
0.367345
0.0645938
0.365584
0.0633545
0.365409
0.0632842
0.364865
0.0630682
0.363987
0.0626794
0.363066
0.0621765
0.362166
0.0616413
0.361308
0.0611218
0.360499
0.0606182
0.359722
0.0601011
0.358964
0.0595568
0.358225
0.0589816
0.357505
0.0583739
0.356804
0.0577312
0.356121
0.0570502
0.355455
0.0563291
0.354806
0.0555655
0.354174
0.0547581
0.353558
0.0539064
0.352959
0.0530079
0.352377
0.0520651
0.351814
0.051075
0.351269
0.0500395
0.350746
0.0489591
0.350243
0.0478296
0.349756
0.0466564
0.349277
0.0454342
0.348798
0.0441788
0.348333
0.0428729
0.347884
0.0415131
0.347507
0.0400926
0.347275
0.0386183
0.347398
0.0371137
0.348288
0.0356161
0.35061
0.0341998
0.355545
0.0326961
0.364997
0.0310675
0.381698
0.0293105
0.409287
0.02742
0.452003
0.0253346
0.513436
0.0230966
0.593085
0.0207637
0.681635
0.0180442
0.759284
0.0148866
0.808426
0.0124738
0.832282
0.00967954
0.83888
0.00562378
0.839211
0.00328315
0.838543
0.00229067
0.836946
0.00148354
0.834747
0.000827132
0.832355
0.000377605
0.829914
0.000130683
0.827496
2.41399e-05
0.825257
-1.32918e-05
0.823204
-2.03833e-05
0.821261
-2.13276e-05
0.819347
-1.44786e-05
0.817415
-9.87058e-06
0.81546
-7.60684e-06
0.813498
-6.70563e-06
0.811548
-6.53561e-06
0.809626
-6.40924e-06
0.807744
-6.34014e-06
0.805911
-6.28038e-06
0.804132
-6.21417e-06
0.802402
-6.11957e-06
0.800708
-6.02408e-06
0.799039
-5.9378e-06
0.79739
-5.8635e-06
0.795762
-5.79971e-06
0.794158
-5.74193e-06
-5.68758e-06
0.0075345
0.0511281
0.0129237
0.0525832
0.0194949
0.0494645
0.027019
0.0498536
0.0347735
0.0499052
0.042561
0.0500933
0.050271
0.050271
0.0580401
0.05017
0.0661056
0.0504876
0.0745257
0.0507319
0.0832608
0.0510309
0.0923082
0.0513905
0.101651
0.0518359
0.111269
0.0523687
0.121137
0.0529183
0.131244
0.0535348
0.141577
0.0542953
0.152126
0.055056
0.162853
0.0558798
0.173727
0.0567265
0.184711
0.0576769
0.195758
0.0587035
0.206835
0.0597028
0.217893
0.0607467
0.228856
0.0618258
0.239663
0.0628502
0.250231
0.0639206
0.260468
0.0650477
0.270291
0.0661985
0.279592
0.0673963
0.288264
0.0685008
0.296154
0.0696502
0.303109
0.0708879
0.309024
0.0720039
0.313755
0.0733151
0.317299
0.0742341
0.319711
0.0752884
0.32119
0.0761918
0.321742
0.0770401
0.321643
0.0777743
0.321116
0.0784747
0.320241
0.0791777
0.319114
0.0798613
0.317871
0.0805045
0.316641
0.0811976
0.315512
0.0818738
0.31452
0.0826642
0.313675
0.0835134
0.312913
0.0844785
0.312184
0.0854494
0.31146
0.0864723
0.310779
0.0875048
0.310257
0.0886073
0.310045
0.0897822
0.310248
0.0910041
0.310947
0.0921954
0.312233
0.0934839
0.314287
0.0948302
0.317265
0.0962076
0.321347
0.0975825
0.326787
0.0991206
0.333776
0.100686
0.342569
0.102377
0.353418
0.104134
0.366462
0.10607
0.381966
0.108209
0.400076
0.110527
0.42091
0.112987
0.444625
0.115588
0.471313
0.118468
0.501072
0.121206
0.533984
0.124415
0.570252
0.127631
0.609936
0.131066
0.653237
0.134553
0.700389
0.138594
0.751591
0.142501
0.807063
0.146905
0.867325
0.151332
0.932861
0.156465
1.0042
0.161614
1.08232
0.167813
1.1686
0.17424
1.26468
0.181719
1.37346
0.189755
1.49878
0.199603
1.64734
0.210295
1.83098
0.224559
2.07406
0.241955
2.42375
0.270528
2.61418
0.29826
2.14166
0.256016
0.511202
0.116531
0.365599
0.0742255
0.364076
0.0729085
0.36373
0.0724761
0.362948
0.0719694
0.361931
0.0713776
0.360959
0.070777
0.360055
0.0701944
0.359198
0.0696174
0.35837
0.0690232
0.357564
0.0684003
0.356777
0.0677457
0.35601
0.0670577
0.355261
0.066334
0.354531
0.0655716
0.353817
0.0647678
0.35312
0.0639212
0.35244
0.0630296
0.351776
0.0620922
0.351129
0.0611082
0.350498
0.0600757
0.349884
0.0589975
0.349289
0.0578695
0.348712
0.0566962
0.348157
0.0554738
0.34762
0.0542042
0.347102
0.0528882
0.346589
0.0515239
0.34608
0.0501249
0.345582
0.0486687
0.3451
0.047164
0.344692
0.0455949
0.344433
0.0439643
0.344515
0.0422924
0.345367
0.0406117
0.347654
0.0390389
0.352549
0.0373976
0.361945
0.0356217
0.37856
0.0337119
0.406011
0.0316623
0.448523
0.0294404
0.509674
0.0270963
0.588946
0.0246458
0.676977
0.0217217
0.7544
0.0184449
0.803582
0.0156367
0.827044
0.0125801
0.835509
0.00848309
0.836932
0.00505443
0.836745
0.00327671
0.835744
0.00230154
0.834
0.0014552
0.831943
0.000785206
0.829742
0.00035428
0.827443
0.000129581
0.825256
2.09972e-05
0.823216
-1.64333e-05
0.821274
-2.354e-05
0.819356
-2.29012e-05
0.817419
-1.53287e-05
0.815461
-1.01446e-05
0.813498
-7.5791e-06
0.811548
-6.667e-06
0.809626
-6.42887e-06
0.807744
-6.27186e-06
0.805911
-6.26185e-06
0.804132
-6.21173e-06
0.802402
-6.1315e-06
0.800708
-6.04052e-06
0.799039
-5.94743e-06
0.79739
-5.86432e-06
0.795762
-5.79393e-06
0.794158
-5.72961e-06
-5.67104e-06
0.00885823
0.0568672
0.0141542
0.0620301
0.0201281
0.0583148
0.0272007
0.0576673
0.0346204
0.0576042
0.0423119
0.0577596
0.05017
0.0580401
0.0581074
0.0581074
0.0663266
0.0584419
0.0748427
0.0587232
0.083662
0.0591033
0.0927901
0.0595532
0.102213
0.0600978
0.111907
0.0607345
0.121843
0.0613986
0.132014
0.0621244
0.142408
0.0629939
0.153019
0.0638563
0.163806
0.0647974
0.174735
0.0657593
0.185768
0.066818
0.196859
0.0679571
0.207968
0.0690695
0.219051
0.0702316
0.230035
0.0714619
0.240858
0.0726447
0.251439
0.0738784
0.26169
0.0751686
0.271532
0.0764644
0.280849
0.0778166
0.289535
0.0790588
0.297442
0.0803335
0.304405
0.0816876
0.310311
0.0828792
0.315028
0.0842905
0.318549
0.0852967
0.320946
0.0864293
0.322431
0.0874079
0.323005
0.0883221
0.322915
0.0891314
0.322388
0.0898914
0.321504
0.0906586
0.320354
0.0914234
0.319088
0.0921466
0.317848
0.0929409
0.316735
0.093732
0.315771
0.0946673
0.314944
0.0956542
0.314182
0.096765
0.31344
0.0978719
0.312707
0.0990382
0.312029
0.100205
0.311528
0.101429
0.311346
0.10271
0.31158
0.104029
0.312307
0.105327
0.313623
0.106762
0.315724
0.108236
0.318758
0.109774
0.322898
0.11134
0.328405
0.113022
0.335456
0.114787
0.344307
0.116669
0.35519
0.118614
0.368264
0.120811
0.383809
0.123146
0.401945
0.125732
0.422822
0.128495
0.4466
0.131396
0.473358
0.134643
0.503191
0.137775
0.536208
0.141382
0.572581
0.144974
0.612371
0.148938
0.655797
0.15294
0.703073
0.157456
0.754404
0.161881
0.810057
0.16693
0.870585
0.17198
0.936489
0.177807
1.00838
0.183787
1.08724
0.190848
1.17432
0.198262
1.27147
0.206773
1.38123
0.215956
1.50769
0.227275
1.65815
0.239747
1.84564
0.256022
2.09656
0.2772
2.45145
0.310721
2.63619
0.341376
1.95693
0.279623
0.465065
0.121109
0.363183
0.0826657
0.361846
0.0813003
0.361375
0.0806992
0.360478
0.0800761
0.359441
0.0794193
0.358476
0.0787689
0.357569
0.0781173
0.356692
0.077446
0.355836
0.0767456
0.355
0.0760134
0.354185
0.075248
0.353389
0.0744468
0.35261
0.0736075
0.351849
0.0727273
0.351105
0.0718042
0.350377
0.0708373
0.349665
0.0698241
0.348969
0.0687651
0.348291
0.0676587
0.347629
0.0665046
0.346984
0.0653045
0.346358
0.0640552
0.345751
0.0627619
0.345166
0.061418
0.344599
0.0600309
0.344051
0.0585952
0.343509
0.057116
0.342972
0.0556
0.342445
0.0540271
0.341935
0.0524101
0.3415
0.0507284
0.341218
0.048982
0.341268
0.0471864
0.342092
0.0453741
0.344354
0.0436916
0.349223
0.0419614
0.35858
0.0400939
0.375136
0.0380913
0.402491
0.0359487
0.444855
0.0336411
0.505748
0.0312349
0.584622
0.0286944
0.672029
0.0256302
0.749038
0.0223287
0.798378
0.0190974
0.821231
0.0157368
0.830582
0.0114927
0.833944
0.00763695
0.834444
0.00488353
0.834055
0.00333412
0.832848
0.0022734
0.831213
0.00139026
0.829353
0.000741128
0.827268
0.000350925
0.825199
0.000125058
0.823218
1.5794e-05
0.82129
-1.99699e-05
0.81937
-2.65835e-05
0.817429
-2.43371e-05
0.815466
-1.60588e-05
0.813499
-1.03894e-05
0.811548
-7.55431e-06
0.809625
-6.54359e-06
0.807743
-6.26571e-06
0.805911
-6.13024e-06
0.804132
-6.15602e-06
0.802402
-6.09913e-06
0.800708
-6.03355e-06
0.799039
-5.95829e-06
0.79739
-5.87217e-06
0.795763
-5.79346e-06
0.794158
-5.72224e-06
-5.65805e-06
0.0087514
0.0629935
0.014509
0.0711794
0.0206705
0.0672026
0.0276867
0.0658067
0.0350422
0.0656468
0.0426534
0.0657869
0.0504876
0.0661056
0.0584419
0.0663266
0.0666931
0.0666931
0.0752477
0.0670511
0.0841351
0.0675191
0.0933459
0.0680649
0.102855
0.0687073
0.112632
0.0694417
0.122644
0.0702159
0.132889
0.0710462
0.143355
0.0720225
0.154035
0.0729847
0.164886
0.0740396
0.175874
0.075112
0.186962
0.076272
0.198103
0.0775187
0.209252
0.0787454
0.220373
0.0800204
0.231392
0.0813927
0.242243
0.0827251
0.252846
0.0841098
0.263116
0.0855456
0.272976
0.0869669
0.282305
0.0884611
0.291
0.0898294
0.298917
0.091213
0.305883
0.0926717
0.311779
0.0939315
0.316485
0.095425
0.319996
0.0965106
0.322396
0.0977083
0.323897
0.0987463
0.324496
0.0997057
0.324416
0.100566
0.32389
0.101367
0.323
0.102185
0.32184
0.103031
0.320574
0.10384
0.319353
0.10475
0.31828
0.10567
0.317352
0.106762
0.316535
0.107893
0.315757
0.109145
0.314987
0.110371
0.314236
0.111659
0.31356
0.112938
0.313079
0.114268
0.312922
0.115647
0.313178
0.11706
0.313926
0.118465
0.31527
0.120037
0.317419
0.121612
0.320504
0.123292
0.324692
0.125035
0.330255
0.126833
0.337354
0.128781
0.346244
0.130837
0.357137
0.132983
0.370218
0.135435
0.385787
0.137943
0.403936
0.140799
0.424852
0.143825
0.448683
0.146993
0.475499
0.150581
0.505399
0.154075
0.538524
0.158036
0.575033
0.161991
0.614967
0.166481
0.658564
0.17095
0.706039
0.175907
0.757596
0.180898
0.813544
0.186646
0.874427
0.192346
0.940755
0.198834
1.01315
0.205615
1.09265
0.2135
1.18042
0.22185
1.27834
0.231459
1.38909
0.241929
1.51736
0.254344
1.67045
0.268854
1.86235
0.288014
2.12148
0.312816
2.48299
0.352765
2.65247
0.37713
1.74843
0.296128
0.426485
0.122664
0.360305
0.0901153
0.359134
0.088887
0.358609
0.0882405
0.357667
0.0875596
0.356632
0.0868447
0.355661
0.0861187
0.354733
0.0853739
0.353828
0.0846018
0.352944
0.0837993
0.352082
0.0829645
0.351239
0.0820952
0.350414
0.0811886
0.349608
0.0802426
0.348818
0.079255
0.348044
0.0782244
0.347287
0.0771501
0.346547
0.07603
0.345823
0.0748653
0.345116
0.0736537
0.344427
0.0723972
0.343756
0.0710951
0.343103
0.069747
0.342472
0.0683564
0.341862
0.0669168
0.341271
0.0654379
0.3407
0.0639102
0.340135
0.0623451
0.339577
0.0607408
0.339029
0.059085
0.3385
0.0573873
0.338045
0.0556286
0.337746
0.0538029
0.337778
0.0519224
0.338586
0.0500218
0.340836
0.0482704
0.345693
0.0464916
0.355031
0.0445751
0.371554
0.0425211
0.398848
0.040322
0.441089
0.0379581
0.501729
0.035526
0.580178
0.0329098
0.666874
0.0297649
0.743262
0.0264668
0.79277
0.0228501
0.815104
0.0191773
0.824572
0.0145273
0.829593
0.0107093
0.831509
0.00731754
0.83173
0.00489334
0.831199
0.00333995
0.830091
0.00219462
0.828654
0.00131585
0.826894
0.000727007
0.825017
0.000343696
0.823163
0.000117506
0.821296
1.06e-05
0.819389
-2.34026e-05
0.817446
-2.9675e-05
0.815477
-2.57423e-05
0.813504
-1.67098e-05
0.811549
-1.05367e-05
0.809625
-7.45991e-06
0.807743
-6.37076e-06
0.805911
-6.06498e-06
0.804132
-5.96178e-06
0.802402
-6.03403e-06
0.800708
-5.98095e-06
0.799039
-5.93481e-06
0.79739
-5.87e-06
0.795763
-5.78997e-06
0.794158
-5.7126e-06
-5.64185e-06
0.00783837
0.0702907
0.0142355
0.0799897
0.0209895
0.0757978
0.0281409
0.0741371
0.0354441
0.0740526
0.042955
0.0742151
0.0507319
0.0745257
0.0587232
0.0748427
0.0670511
0.0752477
0.075706
0.075706
0.0847039
0.0762727
0.0940164
0.0769227
0.103614
0.0776624
0.11347
0.0784891
0.123557
0.0793695
0.133875
0.0802998
0.144413
0.0813815
0.15516
0.0824427
0.166073
0.0836074
0.177118
0.0847858
0.188261
0.0860426
0.199454
0.0873941
0.210649
0.0887368
0.221815
0.0901198
0.232876
0.0916232
0.243759
0.0930946
0.254384
0.0946174
0.26467
0.0961827
0.274541
0.0977133
0.283874
0.0993395
0.292569
0.100825
0.300486
0.102303
0.307445
0.103856
0.313322
0.105175
0.318014
0.106728
0.321525
0.107875
0.32395
0.109112
0.325486
0.110193
0.326122
0.111182
0.32606
0.112077
0.325538
0.112907
0.324646
0.113768