/*--------------------------------*- C++ -*----------------------------------*\
  =========                 |
  \\      /  F ield         | OpenFOAM: The Open Source CFD Toolbox
   \\    /   O peration     | Website:  https://openfoam.org
    \\  /    A nd           | Version:  13
     \\/     M anipulation  |
\*---------------------------------------------------------------------------*/
FoamFile
{
    format      ascii;
    class       volScalarField;
    location    "0.0017";
    object      Qdot;
}
// * * * * * * * * * * * * * * * * * * * * * * * * * * * * * * * * * * * * * //

dimensions      [1 -1 -3 0 0 0 0];

internalField   nonuniform List<scalar> 
33334
(
-2.41874e-19
-2.46784e-19
-2.65022e-19
-3.12524e-19
-4.11164e-19
-6.01265e-19
-9.62505e-19
-1.67505e-18
-3.17924e-18
-6.56401e-18
-1.46792e-17
-3.53225e-17
-9.05851e-17
-2.44546e-16
-6.86168e-16
-1.97749e-15
-5.7924e-15
-1.7092e-14
-5.0446e-14
-1.48159e-13
-4.3152e-13
-1.24397e-12
-3.54724e-12
-1.00124e-11
-2.8029e-11
-7.80288e-11
-2.16506e-10
-5.99005e-10
-1.64813e-09
-4.48457e-09
-1.19792e-08
-3.11784e-08
-7.85693e-08
-1.90819e-07
-4.45145e-07
-9.95043e-07
-2.1257e-06
-4.33548e-06
8.63226e-05
0.000206252
0.000290638
0.00049639
0.000790242
0.00133068
0.00179492
0.00272815
0.0038397
0.00490139
0.00643362
0.00815146
0.00990429
0.0114467
0.0126684
0.0136569
0.0136768
0.013718
0.01369
0.0130863
0.0126235
0.0124943
0.0122895
0.0126871
0.013012
0.0138169
0.0150675
0.0168451
0.0199563
0.023845
0.0301811
0.0396547
0.0547661
0.0791982
0.12062
0.195982
0.338089
0.627117
1.2571
2.75157
6.63955
17.7836
53.2845
180.875
710.519
3224.12
17316.6
112676
919521
9.98936e+06
1.54043e+08
3.83659e+09
1.28343e+11
1.45501e+11
3.0386e+08
1.39254e+07
1.23865e+07
1.22109e+07
1.20127e+07
1.17905e+07
1.15504e+07
1.12661e+07
1.0891e+07
1.04691e+07
1.02405e+07
1.00669e+07
9.90222e+06
9.74408e+06
9.59531e+06
9.45591e+06
9.32506e+06
9.2023e+06
9.08746e+06
8.98044e+06
8.88116e+06
8.78942e+06
8.70485e+06
8.627e+06
8.55544e+06
8.49102e+06
8.43455e+06
8.38678e+06
8.35102e+06
8.32672e+06
8.31325e+06
8.29782e+06
8.25497e+06
8.14975e+06
7.89042e+06
7.33256e+06
6.30138e+06
4.71371e+06
2.8037e+06
1.16822e+06
289521
35669
1961.99
56.9117
1.61174
0.104189
0.0251901
0.0150111
0.0133427
0.0129455
0.0129353
0.0129961
0.0130568
0.0130304
0.0129419
0.0127767
0.0125857
0.0122226
0.0120376
0.0118249
0.0115351
0.0113405
0.0112273
0.0110639
0.0109625
0.0107997
0.010634
0.010467
0.0103025
0.010145
0.0100566
0.009918
0.00972782
0.00966291
-2.46784e-19
-2.52001e-19
-2.70664e-19
-3.1987e-19
-4.22474e-19
-6.18441e-19
-9.89503e-19
-1.71277e-18
-3.22325e-18
-6.60075e-18
-1.46868e-17
-3.52436e-17
-9.02207e-17
-2.43226e-16
-6.81663e-16
-1.96239e-15
-5.7421e-15
-1.69264e-14
-4.99055e-14
-1.46408e-13
-4.25911e-13
-1.22625e-12
-3.49209e-12
-9.84342e-12
-2.75189e-11
-7.65111e-11
-2.12043e-10
-5.8603e-10
-1.61105e-09
-4.38135e-09
-1.17017e-08
-3.04617e-08
-7.68025e-08
-1.86681e-07
-4.35939e-07
-9.75661e-07
-2.08678e-06
-4.26088e-06
8.64057e-05
0.000206357
0.000290825
0.00049664
0.000790556
0.00133094
0.00179522
0.00246999
0.00361279
0.00477089
0.00630194
0.00808304
0.00980032
0.0114364
0.0128824
0.0137349
0.0138524
0.0140245
0.0138635
0.0132935
0.0129327
0.0124687
0.0125691
0.0127972
0.0129839
0.0136471
0.0150328
0.0165903
0.0199042
0.0239259
0.0300933
0.0393037
0.054203
0.0779105
0.118731
0.191441
0.329766
0.609133
1.21738
2.65801
6.4028
17.1472
51.4077
174.32
674.967
3056.95
16358.2
106196
877023
9.47498e+06
1.44694e+08
3.55136e+09
1.20873e+11
1.61392e+11
3.7717e+08
1.38645e+07
1.18719e+07
1.15666e+07
1.12454e+07
1.09098e+07
1.05984e+07
1.03573e+07
1.02291e+07
1.02159e+07
1.00904e+07
9.93542e+06
9.78301e+06
9.6421e+06
9.50892e+06
9.38214e+06
9.26213e+06
9.14913e+06
9.04321e+06
8.94438e+06
8.85265e+06
8.7679e+06
8.68977e+06
8.61786e+06
8.55162e+06
8.49162e+06
8.43966e+06
8.39693e+06
8.36656e+06
8.34821e+06
8.33839e+06
8.32888e+06
8.29061e+06
8.18803e+06
7.92906e+06
7.37102e+06
6.33644e+06
4.7412e+06
2.82077e+06
1.17507e+06
291110
35875
1975.41
56.9293
1.59281
0.102913
0.0248941
0.0149715
0.0133284
0.0129402
0.0129313
0.0129937
0.0130553
0.0130295
0.012941
0.0127758
0.0125847
0.0122216
0.0120366
0.0118239
0.0115341
0.0113396
0.0112264
0.0110629
0.0109616
0.0107988
0.0106332
0.0104662
0.0103017
0.0101442
0.0100559
0.00991726
0.00972712
0.00966223
-2.65022e-19
-2.70664e-19
-2.9037e-19
-3.42137e-19
-4.51791e-19
-6.62945e-19
-1.06394e-18
-1.84319e-18
-3.44508e-18
-6.99556e-18
-1.54621e-17
-3.69339e-17
-9.42136e-17
-2.53226e-16
-7.07728e-16
-2.03202e-15
-5.93032e-15
-1.74356e-14
-5.12719e-14
-1.5001e-13
-4.35181e-13
-1.24946e-12
-3.54859e-12
-9.97757e-12
-2.78309e-11
-7.72268e-11
-2.1368e-10
-5.89831e-10
-1.62025e-09
-4.40502e-09
-1.17666e-08
-3.06478e-08
-7.73402e-08
-1.88195e-07
-4.39985e-07
-9.85831e-07
-2.1109e-06
-4.31472e-06
8.63148e-05
0.000206174
0.000290437
0.000495905
0.000789234
0.00120031
0.00179157
0.00269037
0.00383104
0.00501852
0.00654584
0.0082571
0.0101962
0.0120534
0.0134264
0.0141441
0.014493
0.0145358
0.0142794
0.0138153
0.0133613
0.0130059
0.0129116
0.0130103
0.0133061
0.0138722
0.0152308
0.0170801
0.0199009
0.0241502
0.0303695
0.0395648
0.0545385
0.0783797
0.119339
0.192239
0.329758
0.607009
1.20911
2.6289
6.30587
16.8124
50.1735
169.404
657.127
2976.67
16040.2
105887
889231
9.94874e+06
1.57887e+08
3.94693e+09
1.29001e+11
1.43385e+11
3.06086e+08
1.3218e+07
1.1522e+07
1.126e+07
1.10165e+07
1.08015e+07
1.06315e+07
1.05019e+07
1.03921e+07
1.02621e+07
1.00999e+07
9.93772e+06
9.78461e+06
9.6399e+06
9.50265e+06
9.37279e+06
9.25035e+06
9.13527e+06
9.02749e+06
8.92694e+06
8.8336e+06
8.74727e+06
8.66757e+06
8.59409e+06
8.52614e+06
8.46355e+06
8.408e+06
8.3618e+06
8.32753e+06
8.30555e+06
8.29082e+06
8.27591e+06
8.23438e+06
8.12648e+06
7.86488e+06
7.30736e+06
6.27708e+06
4.69231e+06
2.78792e+06
1.15977e+06
286716
35215.3
1928.84
55.3878
1.55472
0.100765
0.024484
0.0148516
0.0132497
0.012908
0.0129116
0.0129858
0.0130529
0.0130279
0.0129396
0.0127743
0.0125832
0.01222
0.0120351
0.0118224
0.0115326
0.0113381
0.011225
0.0110616
0.0109604
0.0107976
0.010632
0.0104651
0.0103007
0.0101432
0.0100549
0.0099163
0.00972618
0.00966134
-3.12524e-19
-3.1987e-19
-3.42137e-19
-4.03088e-19
-5.31979e-19
-7.81282e-19
-1.25396e-18
-2.17456e-18
-4.06067e-18
-8.20803e-18
-1.79954e-17
-4.25952e-17
-1.07698e-16
-2.8709e-16
-7.96248e-16
-2.26972e-15
-6.5782e-15
-1.92099e-14
-5.61162e-14
-1.63126e-13
-4.70281e-13
-1.34225e-12
-3.79152e-12
-1.06101e-11
-2.94795e-11
-8.15564e-11
-2.25193e-10
-6.20887e-10
-1.70502e-09
-4.63751e-09
-1.24004e-08
-3.23453e-08
-8.17582e-08
-1.99286e-07
-4.66685e-07
-1.04736e-06
-2.24667e-06
-4.60139e-06
8.57855e-05
7.84123e-05
0.000288481
0.000364756
0.00100739
0.00138326
0.00196942
0.00279614
0.00399157
0.00552317
0.00736097
0.00928376
0.0115649
0.0133744
0.0149355
0.0156856
0.0161385
0.0159602
0.015618
0.0151694
0.0144978
0.0139562
0.0138426
0.0136813
0.0142964
0.0148395
0.016105
0.0179631
0.0208993
0.0251918
0.0314904
0.0411417
0.0563441
0.080675
0.122708
0.197014
0.338126
0.622195
1.23813
2.69157
6.45282
17.2182
51.5481
174.953
684.36
3137.47
17174.2
114784
971165
1.09678e+07
1.76319e+08
4.47322e+09
1.43717e+11
1.26374e+11
2.35728e+08
1.2603e+07
1.12373e+07
1.10413e+07
1.08639e+07
1.0701e+07
1.05492e+07
1.03973e+07
1.02375e+07
1.00676e+07
9.90037e+06
9.74189e+06
9.59221e+06
9.45046e+06
9.31653e+06
9.19045e+06
9.07204e+06
8.96114e+06
8.85763e+06
8.76136e+06
8.67228e+06
8.59013e+06
8.51448e+06
8.44493e+06
8.38071e+06
8.32169e+06
8.26904e+06
8.22498e+06
8.19236e+06
8.17176e+06
8.15777e+06
8.14322e+06
8.10353e+06
7.99501e+06
7.73636e+06
7.18545e+06
6.16823e+06
4.60546e+06
2.731e+06
1.13293e+06
279008
34088.9
1856.36
53.1837
1.49892
0.0978117
0.0238273
0.0146539
0.0131223
0.0128489
0.0128701
0.0129653
0.0130464
0.0130263
0.0129386
0.0127737
0.0125825
0.012219
0.0120339
0.0118212
0.0115315
0.011337
0.011224
0.0110606
0.0109594
0.0107967
0.0106311
0.0104643
0.0102999
0.0101425
0.0100542
0.00991567
0.0097256
0.00966079
-4.11164e-19
-4.22474e-19
-4.51791e-19
-5.31979e-19
-7.0006e-19
-1.02566e-18
-1.64297e-18
-2.84706e-18
-5.3101e-18
-1.06967e-17
-2.32912e-17
-5.46084e-17
-1.36595e-16
-3.60154e-16
-9.88284e-16
-2.78836e-15
-8.00183e-15
-2.31449e-14
-6.69884e-14
-1.93013e-13
-5.51817e-13
-1.56297e-12
-4.38537e-12
-1.22032e-11
-3.37581e-11
-9.31076e-11
-2.56612e-10
-7.0694e-10
-1.94136e-09
-5.28345e-09
-1.41411e-08
-3.69272e-08
-9.3448e-08
-2.2806e-07
-5.34793e-07
-1.20221e-06
-2.58461e-06
-5.30878e-06
-1.04105e-05
7.5718e-05
0.000315297
0.000579523
0.00108884
0.00158428
0.00238341
0.00348399
0.00488389
0.00661467
0.00874439
0.0115434
0.0139851
0.0163223
0.0179691
0.0189197
0.0189541
0.0190281
0.0186157
0.0177334
0.016759
0.0163827
0.0159597
0.0157214
0.0162202
0.0170248
0.0182057
0.0201491
0.0235993
0.0278992
0.0349749
0.04533
0.0619151
0.088716
0.134233
0.215789
0.369732
0.679923
1.35328
2.94454
7.0709
18.9337
57.0724
195.626
772.376
3576.77
19788.3
133855
1.14175e+06
1.29393e+07
2.10031e+08
5.42576e+09
1.66636e+11
1.02232e+11
1.68562e+08
1.20927e+07
1.10425e+07
1.08828e+07
1.0719e+07
1.05476e+07
1.03706e+07
1.01888e+07
1.00067e+07
9.83198e+06
9.6677e+06
9.51291e+06
9.36664e+06
9.22864e+06
9.09885e+06
8.97709e+06
8.86309e+06
8.75663e+06
8.65754e+06
8.56561e+06
8.48071e+06
8.40252e+06
8.33056e+06
8.26436e+06
8.20318e+06
8.14697e+06
8.0967e+06
8.0544e+06
8.0228e+06
8.00265e+06
7.9888e+06
7.97321e+06
7.93372e+06
7.82417e+06
7.56797e+06
7.02429e+06
6.02346e+06
4.48922e+06
2.65424e+06
1.09619e+06
268282
32537
1761.02
50.3863
1.42781
0.0940915
0.0229354
0.0144681
0.0129304
0.0127524
0.0127969
0.0129223
0.0130288
0.0130218
0.0129373
0.0127737
0.0125827
0.0122189
0.0120336
0.0118207
0.0115309
0.0113365
0.0112234
0.0110601
0.010959
0.0107963
0.0106308
0.0104639
0.0102996
0.0101422
0.0100539
0.00991543
0.00972538
0.00966059
-6.01265e-19
-6.18441e-19
-6.62945e-19
-7.81282e-19
-1.02566e-18
-1.49514e-18
-2.38126e-18
-4.10263e-18
-7.61416e-18
-1.52499e-17
-3.29587e-17
-7.65509e-17
-1.89422e-16
-4.93744e-16
-1.33929e-15
-3.73618e-15
-1.06055e-14
-3.03578e-14
-8.70017e-14
-2.48371e-13
-7.04065e-13
-1.97897e-12
-5.51548e-12
-1.52616e-11
-4.20272e-11
-1.15515e-10
-3.17579e-10
-8.73434e-10
-2.39611e-09
-6.5175e-09
-1.74411e-08
-4.55516e-08
-1.15332e-07
-2.81758e-07
-6.61807e-07
-1.49136e-06
-3.21676e-06
-6.63466e-06
0.000113346
0.000292798
0.000497245
0.000786947
0.0013821
0.00208672
0.00331471
0.00480532
0.00661927
0.0089503
0.0118034
0.0148007
0.0181929
0.0212664
0.0232198
0.02434
0.024721
0.0243666
0.0235378
0.0225104
0.0212574
0.0205648
0.0196148
0.0196915
0.0196089
0.0204425
0.0220024
0.0244662
0.0278944
0.0334741
0.0415065
0.0536373
0.0729863
0.104568
0.158145
0.253778
0.43387
0.796434
1.58495
3.45151
8.30264
22.2739
67.2769
231.297
916.096
4253.24
23569.2
160226
1.37708e+06
1.57232e+07
2.57027e+08
6.82257e+09
1.97377e+11
7.70077e+10
1.14933e+08
1.16084e+07
1.0807e+07
1.0639e+07
1.04547e+07
1.02581e+07
1.00607e+07
9.8697e+06
9.6891e+06
9.5202e+06
9.36159e+06
9.21207e+06
9.07124e+06
8.93895e+06
8.81496e+06
8.69901e+06
8.59081e+06
8.49011e+06
8.39669e+06
8.31028e+06
8.23071e+06
8.15758e+06
8.09041e+06
8.02863e+06
7.9716e+06
7.91926e+06
7.87253e+06
7.83334e+06
7.80408e+06
7.78565e+06
7.77321e+06
7.75793e+06
7.7193e+06
7.61074e+06
7.35813e+06
6.82451e+06
5.84477e+06
4.34643e+06
2.56054e+06
1.05164e+06
255436
30711.8
1650.38
47.1175
1.34345
0.0895983
0.0219241
0.0139228
0.0126876
0.0126706
0.0126801
0.0128443
0.0129892
0.0130075
0.0129317
0.0127735
0.0125837
0.0122198
0.0120339
0.0118207
0.0115307
0.0113363
0.0112233
0.01106
0.0109588
0.0107961
0.0106306
0.0104638
0.0102995
0.0101421
0.0100538
0.00991537
0.00972533
0.00966055
-9.62505e-19
-9.89503e-19
-1.06394e-18
-1.25396e-18
-1.64297e-18
-2.38126e-18
-3.76256e-18
-6.42246e-18
-1.18112e-17
-2.34309e-17
-5.01292e-17
-1.15159e-16
-2.81635e-16
-7.25213e-16
-1.94314e-15
-5.35574e-15
-1.50277e-14
-4.25498e-14
-1.20714e-13
-3.41423e-13
-9.59708e-13
-2.67708e-12
-7.4106e-12
-2.03821e-11
-5.5831e-11
-1.52753e-10
-4.1833e-10
-1.14687e-09
-3.13847e-09
-8.52184e-09
-2.27821e-08
-5.94882e-08
-1.50712e-07
-3.68766e-07
-8.6832e-07
-1.96332e-06
-4.25227e-06
8.57703e-05
7.75126e-05
0.000189284
0.00057776
0.00108002
0.00178626
0.00288318
0.00449424
0.00642041
0.00901322
0.0122404
0.0162071
0.0207702
0.0250796
0.0292219
0.032028
0.033091
0.0332981
0.0327616
0.031541
0.0299324
0.0280972
0.0268144
0.0256691
0.0252669
0.0254819
0.0263324
0.0281856
0.031079
0.0355029
0.0421893
0.0519901
0.0673931
0.0914391
0.12989
0.195614
0.312445
0.532742
0.975804
1.93812
4.21574
10.1364
27.1806
82.0553
282.162
1119.25
5211.97
28982.6
198119
1.71657e+06
1.99106e+07
3.31873e+08
8.98296e+09
2.35769e+11
5.3138e+10
7.5278e+07
1.10802e+07
1.04732e+07
1.0287e+07
1.00847e+07
9.87815e+06
9.68073e+06
9.49596e+06
9.32331e+06
9.16127e+06
9.00876e+06
8.86533e+06
8.73076e+06
8.6048e+06
8.48715e+06
8.37751e+06
8.27557e+06
8.18103e+06
8.09362e+06
8.01305e+06
7.9391e+06
7.87134e+06
7.80926e+06
7.75222e+06
7.69968e+06
7.65152e+06
7.60868e+06
7.57303e+06
7.54664e+06
7.53052e+06
7.52007e+06
7.50597e+06
7.46892e+06
7.36291e+06
7.11539e+06
6.59446e+06
5.63979e+06
4.1834e+06
2.45425e+06
1.00161e+06
241191
28708.9
1529.44
43.5266
1.24928
0.0847609
0.0208135
0.0133008
0.0123777
0.0124092
0.0125159
0.0127229
0.0129159
0.0129732
0.0129139
0.0127695
0.0125847
0.0122214
0.012035
0.0118213
0.0115309
0.0113363
0.0112232
0.0110599
0.0109588
0.0107961
0.0106306
0.0104638
0.0102995
0.0101421
0.0100538
0.00991536
0.00972532
0.00966055
-1.67505e-18
-1.71277e-18
-1.84319e-18
-2.17456e-18
-2.84706e-18
-4.10263e-18
-6.42246e-18
-1.08374e-17
-1.96891e-17
-3.85618e-17
-8.14151e-17
-1.84487e-16
-4.44917e-16
-1.12962e-15
-2.98459e-15
-8.11477e-15
-2.24745e-14
-6.28635e-14
-1.76349e-13
-4.93688e-13
-1.37486e-12
-3.80288e-12
-1.04463e-11
-2.85298e-11
-7.76455e-11
-2.11198e-10
-5.75415e-10
-1.5707e-09
-4.28381e-09
-1.16047e-08
-3.0986e-08
-8.09034e-08
-2.05175e-07
-5.03072e-07
-1.18813e-06
-2.69656e-06
-5.86562e-06
0.000113919
0.000292448
0.00049418
0.000872986
0.00148626
0.0025829
0.0040908
0.00616227
0.00920979
0.0130359
0.0179335
0.0233943
0.0293784
0.0359319
0.0414
0.0450431
0.0461201
0.0466921
0.0457318
0.0436892
0.0413087
0.0386693
0.0362681
0.0348317
0.034261
0.0343276
0.0351892
0.0372204
0.0408866
0.0465748
0.0551079
0.0676457
0.0870638
0.117064
0.166201
0.248961
0.396133
0.672814
1.22863
2.43472
5.28571
12.6938
34.0164
102.72
353.578
1405.58
6565.01
36704.9
253050
2.21161e+06
2.60026e+07
4.42808e+08
1.24065e+10
2.80811e+11
3.27298e+10
4.89119e+07
1.04999e+07
1.00406e+07
9.84809e+06
9.64409e+06
9.44324e+06
9.25503e+06
9.07941e+06
8.91464e+06
8.7597e+06
8.61417e+06
8.4778e+06
8.35033e+06
8.23143e+06
8.12078e+06
8.01804e+06
7.92287e+06
7.83496e+06
7.75399e+06
7.67967e+06
7.61172e+06
7.54971e+06
7.49313e+06
7.44128e+06
7.39371e+06
7.35024e+06
7.31183e+06
7.28033e+06
7.25755e+06
7.24454e+06
7.23692e+06
7.22516e+06
7.19094e+06
7.08926e+06
6.84905e+06
6.34348e+06
5.41733e+06
4.00739e+06
2.34019e+06
948331
226152
26606.1
1402.8
39.7579
1.14857
0.0793742
0.0196564
0.0125668
0.0120703
0.0121702
0.0123039
0.0126157
0.012799
0.0129072
0.0128736
0.0127539
0.0125828
0.0122228
0.0120368
0.0118226
0.0115317
0.0113366
0.0112233
0.0110599
0.0109587
0.0107961
0.0106306
0.0104638
0.0102995
0.0101421
0.0100538
0.00991537
0.00972533
0.00966055
-3.17924e-18
-3.22325e-18
-3.44508e-18
-4.06067e-18
-5.3101e-18
-7.61416e-18
-1.18112e-17
-1.96891e-17
-3.52723e-17
-6.80322e-17
-1.41329e-16
-3.14932e-16
-7.46742e-16
-1.86422e-15
-4.8447e-15
-1.29635e-14
-3.53619e-14
-9.7512e-14
-2.69964e-13
-7.46684e-13
-2.0566e-12
-5.63156e-12
-1.53275e-11
-4.15079e-11
-1.12094e-10
-3.02778e-10
-8.19917e-10
-2.2268e-09
-6.04959e-09
-1.6345e-08
-4.3586e-08
-1.13797e-07
-2.88916e-07
-7.09915e-07
-1.6816e-06
-3.83003e-06
8.60195e-05
7.72959e-05
0.000408898
0.000887885
0.00137886
0.00228625
0.00366317
0.0060761
0.00919248
0.0134213
0.0189843
0.025885
0.0337839
0.0427853
0.0515481
0.0594666
0.0643865
0.0659841
0.0662116
0.0648943
0.0620146
0.0580243
0.0543774
0.0510232
0.0484765
0.0472779
0.047139
0.04833
0.0509636
0.0551942
0.0625311
0.0733234
0.0898906
0.114919
0.154191
0.217877
0.324954
0.514563
0.871024
1.58637
3.13666
6.79946
16.3177
43.7308
132.222
455.993
1818.71
8530.68
48043.7
333918
2.95386e+06
3.54818e+07
6.18666e+08
1.78165e+10
3.19604e+11
1.78882e+10
3.19974e+07
9.8923e+06
9.54812e+06
9.36081e+06
9.16457e+06
8.9742e+06
8.79604e+06
8.62928e+06
8.47272e+06
8.32587e+06
8.18847e+06
8.0602e+06
7.94075e+06
7.82974e+06
7.72684e+06
7.63169e+06
7.54393e+06
7.46323e+06
7.38923e+06
7.32165e+06
7.26017e+06
7.2044e+06
7.15382e+06
7.1077e+06
7.06565e+06
7.02744e+06
6.99409e+06
6.96739e+06
6.94896e+06
6.93983e+06
6.93582e+06
6.92743e+06
6.89716e+06
6.80129e+06
6.5702e+06
6.08179e+06
5.1862e+06
3.82511e+06
2.2224e+06
893527
210746
24463.2
1274.22
35.93
1.04506
0.0735972
0.0184346
0.0119477
0.011503
0.0118528
0.0121359
0.0123382
0.0126331
0.0127986
0.0128049
0.0127148
0.01257
0.0122216
0.0120381
0.0118244
0.0115331
0.0113374
0.0112236
0.0110599
0.0109587
0.0107961
0.0106306
0.0104638
0.0102995
0.0101421
0.0100539
0.00991538
0.00972534
0.00966056
-6.56401e-18
-6.60075e-18
-6.99556e-18
-8.20803e-18
-1.06967e-17
-1.52499e-17
-2.34309e-17
-3.85618e-17
-6.80322e-17
-1.28981e-16
-2.62994e-16
-5.74696e-16
-1.33576e-15
-3.26908e-15
-8.33219e-15
-2.18826e-14
-5.86408e-14
-1.59031e-13
-4.33508e-13
-1.18198e-12
-3.21297e-12
-8.69248e-12
-2.33983e-11
-6.27296e-11
-1.67871e-10
-4.49811e-10
-1.2097e-09
-3.26674e-09
-8.83588e-09
-2.38001e-08
-6.33582e-08
-1.65353e-07
-4.20121e-07
-1.03408e-06
-2.45542e-06
-5.60861e-06
0.00011361
0.000290429
0.000361022
0.00107959
0.00196027
0.00337096
0.00577635
0.00896607
0.0138251
0.0200505
0.0281206
0.0384002
0.0498444
0.0626079
0.0757377
0.0867157
0.09354
0.0953467
0.095587
0.0936386
0.0891371
0.0833632
0.0776354
0.0726141
0.0687385
0.0666151
0.0662038
0.0675072
0.0706536
0.0763478
0.0858734
0.100513
0.122446
0.155687
0.208125
0.292799
0.434901
0.686936
1.15902
2.10503
4.15477
8.99859
21.5885
57.8779
175.278
605.803
2424.42
11422.4
64926.3
455707
4.09453e+06
4.99471e+07
9.01763e+08
2.66701e+10
3.38105e+11
8.41318e+09
2.16496e+07
9.28989e+06
9.02674e+06
8.84851e+06
8.66231e+06
8.48279e+06
8.31481e+06
8.15769e+06
8.01064e+06
7.87326e+06
7.74522e+06
7.62618e+06
7.51575e+06
7.41358e+06
7.31928e+06
7.2325e+06
7.15284e+06
7.07997e+06
7.01352e+06
6.95323e+06
6.89873e+06
6.84969e+06
6.80555e+06
6.76565e+06
6.72958e+06
6.69712e+06
6.6693e+06
6.6479e+06
6.63434e+06
6.62962e+06
6.62968e+06
6.62528e+06
6.59957e+06
6.51024e+06
6.28908e+06
5.81832e+06
4.95363e+06
3.64166e+06
2.10381e+06
838378
195281
22324.8
1146.55
32.1386
0.941455
0.0675874
0.0172037
0.0112034
0.0109656
0.0112637
0.0117729
0.0121179
0.012416
0.0126411
0.0126993
0.0126427
0.0124757
0.0122108
0.0120369
0.0118255
0.0115349
0.0113389
0.0112245
0.0110603
0.0109588
0.010796
0.0106306
0.0104638
0.0102995
0.0101421
0.0100539
0.00991539
0.00972535
0.00966057
-1.46792e-17
-1.46868e-17
-1.54621e-17
-1.79954e-17
-2.32912e-17
-3.29587e-17
-5.01292e-17
-8.14151e-17
-1.41329e-16
-2.62994e-16
-5.25296e-16
-1.1229e-15
-2.55137e-15
-6.10371e-15
-1.52139e-14
-3.91066e-14
-1.02679e-13
-2.73167e-13
-7.3143e-13
-1.96148e-12
-5.25087e-12
-1.40069e-11
-3.72192e-11
-9.86203e-11
-2.6117e-10
-6.93429e-10
-1.8504e-09
-4.96487e-09
-1.33608e-08
-3.58534e-08
-9.52127e-08
-2.48198e-07
-6.30574e-07
-1.55347e-06
-3.6945e-06
8.57702e-05
7.60606e-05
0.00040413
0.000874949
0.00157149
0.00285974
0.00516698
0.00843669
0.0137035
0.0208167
0.0301764
0.0424234
0.0573432
0.074656
0.0934057
0.112257
0.128311
0.137648
0.140075
0.140479
0.136866
0.130101
0.121617
0.113054
0.105401
0.0997898
0.0959096
0.0947831
0.0963275
0.100421
0.108043
0.120892
0.141048
0.171116
0.216618
0.288706
0.404244
0.598864
0.942624
1.5858
2.87415
5.66454
12.2613
29.4079
78.9113
239.369
828.846
3329.04
15822.3
90714.1
641846
5.87147e+06
7.35462e+07
1.3823e+09
4.14633e+10
3.15415e+11
3.52667e+09
1.51325e+07
8.70629e+06
8.49598e+06
8.32671e+06
8.15118e+06
7.98319e+06
7.8265e+06
7.68041e+06
7.54423e+06
7.41753e+06
7.29995e+06
7.19108e+06
7.09055e+06
6.99796e+06
6.91294e+06
6.8351e+06
6.76405e+06
6.69944e+06
6.64092e+06
6.58822e+06
6.54096e+06
6.49886e+06
6.46135e+06
6.42782e+06
6.39785e+06
6.37125e+06
6.34904e+06
6.33298e+06
6.32439e+06
6.32412e+06
6.32825e+06
6.32783e+06
6.30664e+06
6.22376e+06
6.01231e+06
5.5586e+06
4.72388e+06
3.45994e+06
1.98606e+06
783587
179964
20223.3
1022.03
28.457
0.840103
0.061422
0.0160552
0.0105562
0.010287
0.0106546
0.0112096
0.0118343
0.0121336
0.0124318
0.0126094
0.0125898
0.0124106
0.012181
0.0120265
0.011824
0.011536
0.0113409
0.0112261
0.0110613
0.0109592
0.0107961
0.0106306
0.0104638
0.0102995
0.0101421
0.0100539
0.0099154
0.00972536
0.00966058
-3.53225e-17
-3.52436e-17
-3.69339e-17
-4.25952e-17
-5.46084e-17
-7.65509e-17
-1.15159e-16
-1.84487e-16
-3.14932e-16
-5.74696e-16
-1.1229e-15
-2.3439e-15
-5.19497e-15
-1.21193e-14
-2.94666e-14
-7.39417e-14
-1.89736e-13
-4.93982e-13
-1.29628e-12
-3.4118e-12
-8.97657e-12
-2.35656e-11
-6.17072e-11
-1.61349e-10
-4.22261e-10
-1.10962e-09
-2.9351e-09
-7.81782e-09
-2.09136e-08
-5.586e-08
-1.47836e-07
-3.84521e-07
-9.75787e-07
-2.40333e-06
-5.71794e-06
0.00011261
0.000286939
0.00057339
0.00137351
0.00244782
0.00453609
0.00792701
0.013354
0.0208427
0.0320368
0.0463621
0.0650085
0.0874459
0.11316
0.140816
0.168497
0.192079
0.205434
0.208766
0.208753
0.20335
0.193081
0.180406
0.166926
0.155382
0.146615
0.140719
0.138735
0.140564
0.146122
0.156354
0.174479
0.202453
0.244975
0.309647
0.410693
0.57318
0.846521
1.32868
2.22962
4.03347
7.94086
17.18
41.2127
110.73
336.329
1167.25
4719.41
22601.3
130246
936485
8.75025e+06
1.12864e+08
2.20555e+09
6.65916e+10
2.49816e+11
1.31086e+09
1.13706e+07
8.14735e+06
7.97015e+06
7.81019e+06
7.64633e+06
7.49099e+06
7.3467e+06
7.21268e+06
7.08824e+06
6.97296e+06
6.86643e+06
6.76825e+06
6.67802e+06
6.59533e+06
6.51981e+06
6.45104e+06
6.38867e+06
6.33233e+06
6.28169e+06
6.23646e+06
6.19631e+06
6.16095e+06
6.12984e+06
6.10242e+06
6.07827e+06
6.05724e+06
6.04028e+06
6.0292e+06
6.02522e+06
6.02902e+06
6.03683e+06
6.03994e+06
6.02276e+06
5.9457e+06
5.74316e+06
5.30529e+06
4.49898e+06
3.28136e+06
1.87e+06
729584
164944
18183.4
902.479
24.9444
0.742186
0.0554903
0.014822
0.009907
0.00967733
0.0100315
0.0106176
0.0112966
0.0119164
0.0121528
0.0123506
0.0123741
0.012304
0.0121224
0.0119981
0.0118133
0.0115344
0.0113421
0.0112282
0.011063
0.0109602
0.0107965
0.0106306
0.0104638
0.0102994
0.0101421
0.0100539
0.0099154
0.00972537
0.00966059
-9.05851e-17
-9.02207e-17
-9.42136e-17
-1.07698e-16
-1.36595e-16
-1.89422e-16
-2.81635e-16
-4.44917e-16
-7.46742e-16
-1.33576e-15
-2.55137e-15
-5.19497e-15
-1.12156e-14
-2.54707e-14
-6.02887e-14
-1.47372e-13
-3.68771e-13
-9.37551e-13
-2.40619e-12
-6.20369e-12
-1.60132e-11
-4.13035e-11
-1.06417e-10
-2.74197e-10
-7.08237e-10
-1.83983e-09
-4.81883e-09
-1.27289e-08
-3.38163e-08
-8.9812e-08
-2.36622e-07
-6.13378e-07
-1.55281e-06
-3.8185e-06
8.503e-05
0.00016821
0.000491769
0.00107822
0.00194128
0.0039446
0.00733903
0.012298
0.0207233
0.0327539
0.0495985
0.0721287
0.100269
0.134413
0.173311
0.215083
0.255958
0.29051
0.309848
0.31472
0.314075
0.305532
0.290082
0.270714
0.250593
0.233113
0.219378
0.210666
0.206951
0.208875
0.216658
0.231483
0.257063
0.297768
0.358982
0.452344
0.598317
0.832776
1.22658
1.91973
3.21422
5.80483
11.4236
24.7123
59.3367
159.63
485.445
1692.82
6891.19
33172.8
193193
1.41569e+06
1.35401e+07
1.79738e+08
3.70943e+09
1.07016e+11
1.68301e+11
4.14109e+08
9.18331e+06
7.61713e+06
7.46208e+06
7.31198e+06
7.16073e+06
7.01867e+06
6.88726e+06
6.76562e+06
6.65314e+06
6.54938e+06
6.45391e+06
6.36634e+06
6.28624e+06
6.21323e+06
6.14691e+06
6.08688e+06
6.03279e+06
5.98427e+06
5.94104e+06
5.9028e+06
5.86925e+06
5.84008e+06
5.81482e+06
5.79294e+06
5.77404e+06
5.75798e+06
5.7457e+06
5.73897e+06
5.73899e+06
5.74625e+06
5.75714e+06
5.76315e+06
5.74928e+06
5.67718e+06
5.48256e+06
5.05921e+06
4.27965e+06
3.10652e+06
1.75612e+06
676671
150335
16225.2
789.282
21.6389
0.648871
0.0496955
0.0135404
0.00924564
0.00907441
0.00941591
0.0099959
0.0107248
0.0113321
0.0119405
0.0120804
0.012179
0.0121514
0.012086
0.0120028
0.0117848
0.0115237
0.0113407
0.0112296
0.0110652
0.010962
0.0107976
0.0106311
0.0104638
0.0102994
0.010142
0.0100538
0.0099154
0.00972537
0.0096606
-2.44546e-16
-2.43226e-16
-2.53226e-16
-2.8709e-16
-3.60154e-16
-4.93744e-16
-7.25213e-16
-1.12962e-15
-1.86422e-15
-3.26908e-15
-6.10371e-15
-1.21193e-14
-2.54707e-14
-5.62557e-14
-1.29467e-13
-3.07837e-13
-7.49959e-13
-1.85874e-12
-4.65773e-12
-1.17444e-11
-2.96972e-11
-7.51595e-11
-1.90304e-10
-4.82643e-10
-1.22903e-09
-3.15277e-09
-8.16767e-09
-2.13726e-08
-5.63254e-08
-1.48578e-07
-3.8922e-07
-1.00427e-06
-2.53282e-06
-6.20968e-06
0.000205096
0.00018707
0.000780967
0.00168813
0.00335692
0.00631746
0.011372
0.0198869
0.0326775
0.051915
0.0781422
0.112797
0.156323
0.208297
0.267378
0.330104
0.391401
0.442494
0.47091
0.478211
0.476935
0.463573
0.440179
0.410684
0.380475
0.353779
0.33306
0.318944
0.313202
0.315673
0.326904
0.348506
0.386332
0.446526
0.536967
0.675137
0.89014
1.23603
1.81578
2.83625
4.73874
8.55087
16.8244
36.4077
87.5464
235.845
718.81
2522.07
10329.5
50100.1
296364
2.21244e+06
2.16458e+07
2.9867e+08
6.54329e+09
1.69796e+11
9.1563e+10
1.29712e+08
7.86729e+06
7.11869e+06
6.98038e+06
6.84055e+06
6.7022e+06
6.57334e+06
6.45456e+06
6.34501e+06
6.2441e+06
6.1514e+06
6.06649e+06
5.98896e+06
5.9184e+06
5.85441e+06
5.79661e+06
5.74462e+06
5.6981e+06
5.6567e+06
5.62015e+06
5.58816e+06
5.56049e+06
5.5368e+06
5.51669e+06
5.49964e+06
5.4853e+06
5.47356e+06
5.46529e+06
5.46225e+06
5.46561e+06
5.47569e+06
5.48905e+06
5.49733e+06
5.48612e+06
5.41816e+06
5.23053e+06
4.82048e+06
4.06609e+06
2.93574e+06
1.64476e+06
625089
136233
14363.4
683.475
18.5652
0.561689
0.0441458
0.012364
0.00852505
0.00847311
0.0087482
0.00937308
0.0100509
0.0108349
0.0113628
0.0118779
0.0120399
0.0120727
0.0120084
0.0119138
0.01173
0.0114951
0.0113304
0.0112286
0.0110669
0.0109644
0.0107995
0.0106322
0.0104643
0.0102995
0.010142
0.0100538
0.00991536
0.00972536
0.0096606
-6.86168e-16
-6.81663e-16
-7.07728e-16
-7.96248e-16
-9.88284e-16
-1.33929e-15
-1.94314e-15
-2.98459e-15
-4.8447e-15
-8.33219e-15
-1.52139e-14
-2.94666e-14
-6.02887e-14
-1.29467e-13
-2.89546e-13
-6.69137e-13
-1.58553e-12
-3.82655e-12
-9.35095e-12
-2.30316e-11
-5.69859e-11
-1.41365e-10
-3.51429e-10
-8.76513e-10
-2.19854e-09
-5.56397e-09
-1.42427e-08
-3.68802e-08
-9.63071e-08
-2.52021e-07
-6.55637e-07
-1.68168e-06
-4.21971e-06
-1.02995e-05
0.000290253
0.000355219
0.00136896
0.00264235
0.00556084
0.0103127
0.0184328
0.0321786
0.052611
0.0825035
0.123658
0.177493
0.244621
0.324599
0.414347
0.509406
0.601652
0.678095
0.720508
0.730893
0.728669
0.708654
0.672729
0.628462
0.582849
0.541914
0.510049
0.489163
0.480077
0.48356
0.500569
0.532794
0.589866
0.680403
0.817574
1.02539
1.34915
1.8692
2.74056
4.27326
7.13023
12.8594
25.3049
54.8058
132.01
356.382
1090.24
3847.89
15868
77785
468016
3.56082e+06
3.58659e+07
5.17702e+08
1.20874e+10
2.51763e+11
3.85316e+10
4.55355e+07
7.02337e+06
6.6536e+06
6.52864e+06
6.39923e+06
6.27347e+06
6.15719e+06
6.05035e+06
5.95215e+06
5.86205e+06
5.77963e+06
5.70445e+06
5.63613e+06
5.57424e+06
5.51842e+06
5.46829e+06
5.4235e+06
5.38371e+06
5.3486e+06
5.31793e+06
5.29143e+06
5.26888e+06
5.24996e+06
5.23431e+06
5.2214e+06
5.21097e+06
5.2029e+06
5.19805e+06
5.19813e+06
5.20424e+06
5.21659e+06
5.23189e+06
5.24193e+06
5.23282e+06
5.16834e+06
4.98689e+06
4.58906e+06
3.85843e+06
2.76926e+06
1.53618e+06
575038
122710
12609.5
585.875
15.7431
0.481743
0.0389827
0.011305
0.00787504
0.00781581
0.00814632
0.00869838
0.00942626
0.0101687
0.0108736
0.0113089
0.0117313
0.0118786
0.0118786
0.0117882
0.0115842
0.0114406
0.0113024
0.0112189
0.0110662
0.0109661
0.0108019
0.0106341
0.0104654
0.0103
0.0101421
0.0100538
0.00991532
0.00972532
0.00966059
-1.97749e-15
-1.96239e-15
-2.03202e-15
-2.26972e-15
-2.78836e-15
-3.73618e-15
-5.35574e-15
-8.11477e-15
-1.29635e-14
-2.18826e-14
-3.91066e-14
-7.39417e-14
-1.47372e-13
-3.07837e-13
-6.69137e-13
-1.50283e-12
-3.46247e-12
-8.13309e-12
-1.93698e-11
-4.65689e-11
-1.12661e-10
-2.73736e-10
-6.67644e-10
-1.63643e-09
-4.04007e-09
-1.00788e-08
-2.54694e-08
-6.51955e-08
-1.68506e-07
-4.36928e-07
-1.12741e-06
-2.87099e-06
8.67027e-05
7.68369e-05
0.000494832
0.00107786
0.00227526
0.0045202
0.00888765
0.0167385
0.0303265
0.0517172
0.0845405
0.131864
0.19638
0.280321
0.384191
0.507003
0.644501
0.788676
0.927686
1.04217
1.10559
1.12159
1.1181
1.08798
1.03471
0.967864
0.898774
0.837139
0.788637
0.756811
0.742791
0.748547
0.77474
0.824605
0.912384
1.05195
1.26207
1.58086
2.07686
2.87307
4.20579
6.54896
10.9192
19.6906
38.7715
84.0964
202.937
549.65
1689.8
5998.8
24959.6
123920
758073
5.90967e+06
6.15648e+07
9.38096e+08
2.31056e+10
3.13499e+11
1.21077e+10
1.96948e+07
6.42541e+06
6.22109e+06
6.10679e+06
5.98774e+06
5.87393e+06
5.76933e+06
5.67352e+06
5.58576e+06
5.50556e+06
5.43248e+06
5.36611e+06
5.30607e+06
5.25196e+06
5.20342e+06
5.16009e+06
5.12165e+06
5.08778e+06
5.0582e+06
5.03267e+06
5.01096e+06
4.99285e+06
4.97807e+06
4.96626e+06
4.95694e+06
4.94985e+06
4.94494e+06
4.94301e+06
4.94574e+06
4.95413e+06
4.96832e+06
4.98512e+06
4.99653e+06
4.98907e+06
4.92752e+06
4.75155e+06
4.36497e+06
3.65679e+06
2.60727e+06
1.43062e+06
526693
109833
10974.1
496.992
13.1963
0.40942
0.0342594
0.0102013
0.00730523
0.0072856
0.00749384
0.0081517
0.0087449
0.00954411
0.0102138
0.0108283
0.0112377
0.0114628
0.0115675
0.0115529
0.0114674
0.0113562
0.0113088
0.0111919
0.0110572
0.0109658
0.0108038
0.0106366
0.0104674
0.0103011
0.0101426
0.0100539
0.00991531
0.00972528
0.00966055
-5.7924e-15
-5.7421e-15
-5.93032e-15
-6.5782e-15
-8.00183e-15
-1.06055e-14
-1.50277e-14
-2.24745e-14
-3.53619e-14
-5.86408e-14
-1.02679e-13
-1.89736e-13
-3.68771e-13
-7.49959e-13
-1.58553e-12
-3.46247e-12
-7.7589e-12
-1.774e-11
-4.11735e-11
-9.66049e-11
-2.28435e-10
-5.43398e-10
-1.29967e-09
-3.12887e-09
-7.59904e-09
-1.86762e-08
-4.65603e-08
-1.17726e-07
-3.00892e-07
-7.72289e-07
-1.97429e-06
-4.98549e-06