/*--------------------------------*- C++ -*----------------------------------*\
  =========                 |
  \\      /  F ield         | OpenFOAM: The Open Source CFD Toolbox
   \\    /   O peration     | Website:  https://openfoam.org
    \\  /    A nd           | Version:  13
     \\/     M anipulation  |
\*---------------------------------------------------------------------------*/
FoamFile
{
    format      ascii;
    class       volScalarField;
    location    "0.0017";
    object      rho;
}
// * * * * * * * * * * * * * * * * * * * * * * * * * * * * * * * * * * * * * //

dimensions      [1 -3 0 0 0 0 0];

internalField   nonuniform List<scalar> 
33334
(
0.449397
0.449849
0.450359
0.45128
0.452274
0.453716
0.455553
0.457664
0.460168
0.46273
0.465412
0.468177
0.471024
0.473928
0.476868
0.479819
0.48276
0.485678
0.488557
0.491394
0.494177
0.496903
0.499573
0.502185
0.504748
0.507265
0.50975
0.512221
0.514688
0.517147
0.519603
0.522059
0.524523
0.527017
0.529545
0.532124
0.534659
0.537184
0.539469
0.541612
0.543627
0.545538
0.54735
0.549084
0.550716
0.552231
0.553627
0.554936
0.556181
0.557393
0.558589
0.559787
0.561065
0.562479
0.564008
0.565727
0.567701
0.569989
0.572665
0.57582
0.579521
0.583863
0.588919
0.594752
0.601455
0.609052
0.617609
0.627142
0.637685
0.649279
0.661905
0.675579
0.690271
0.705992
0.722705
0.74046
0.759272
0.779157
0.800227
0.822545
0.846393
0.872035
0.902233
0.932424
0.963442
0.996379
1.03145
1.0764
1.13392
1.21146
1.31141
1.35403
1.1481
0.826134
0.798088
0.799162
0.800374
0.801317
0.801998
0.802273
0.80168
0.800083
0.800136
0.800829
0.801595
0.802346
0.803124
0.803939
0.804787
0.805666
0.806577
0.807523
0.808506
0.80953
0.810601
0.811726
0.812911
0.814158
0.815461
0.816791
0.818141
0.819489
0.820895
0.822407
0.824138
0.826543
0.830212
0.836429
0.847495
0.867081
0.900639
0.955656
1.04147
1.16754
1.33806
1.54204
1.74349
1.89299
1.97555
1.99969
2.00282
2.00129
1.9986
1.99541
1.99224
1.98942
1.98686
1.98471
1.98298
1.98155
1.9802
1.97878
1.97724
1.9756
1.97394
1.97234
1.97083
1.96941
1.96804
1.96668
1.9653
1.96389
1.96247
1.96104
1.95961
1.9582
0.449849
0.450395
0.450921
0.452083
0.453469
0.454976
0.45679
0.458639
0.460851
0.463215
0.465766
0.468447
0.471226
0.474074
0.476967
0.479878
0.482783
0.485669
0.488514
0.491313
0.494058
0.496749
0.499385
0.501966
0.504498
0.506992
0.509459
0.511915
0.514366
0.516817
0.519272
0.521726
0.524188
0.526684
0.529214
0.531805
0.53434
0.536855
0.539191
0.541312
0.543317
0.545219
0.547025
0.548747
0.550367
0.551873
0.55326
0.554551
0.555787
0.556995
0.558179
0.559363
0.560644
0.562023
0.563527
0.565217
0.56715
0.569381
0.571991
0.575065
0.57867
0.582911
0.587832
0.593513
0.600039
0.607441
0.615786
0.625121
0.635454
0.646795
0.65921
0.67265
0.687119
0.702636
0.719238
0.736869
0.755609
0.775449
0.796405
0.818529
0.841885
0.866267
0.890134
0.91822
0.949613
0.984818
1.02746
1.0756
1.13358
1.21018
1.30971
1.3614
1.16598
0.828941
0.794114
0.793961
0.79392
0.793649
0.793383
0.793532
0.79465
0.797105
0.798523
0.799476
0.800333
0.801237
0.802169
0.803111
0.804068
0.805046
0.806051
0.807085
0.80815
0.809252
0.810395
0.811588
0.812833
0.814137
0.815501
0.816897
0.818316
0.81974
0.821193
0.82278
0.824569
0.827005
0.830678
0.8369
0.847946
0.867485
0.900982
0.955888
1.04161
1.1677
1.33843
1.54204
1.74233
1.89157
1.97428
1.99941
2.0027
2.00124
1.99859
1.99541
1.99225
1.98942
1.98687
1.98472
1.98299
1.98155
1.9802
1.97878
1.97724
1.9756
1.97395
1.97234
1.97083
1.96941
1.96805
1.96669
1.9653
1.96389
1.96247
1.96104
1.95961
1.95821
0.450359
0.450921
0.45135
0.452213
0.453546
0.455136
0.457112
0.459183
0.461288
0.463638
0.466193
0.468885
0.471669
0.474516
0.477403
0.480309
0.483211
0.486093
0.488937
0.49173
0.494465
0.497144
0.499768
0.502336
0.504854
0.507333
0.509782
0.512218
0.514648
0.517077
0.519507
0.521938
0.524381
0.526864
0.529386
0.531966
0.534493
0.536991
0.539331
0.541438
0.543433
0.545327
0.547127
0.548847
0.550468
0.551972
0.553356
0.554648
0.555887
0.557101
0.558291
0.559482
0.560752
0.562128
0.563644
0.565352
0.567303
0.569558
0.572197
0.575309
0.578971
0.583272
0.58827
0.594043
0.600663
0.608176
0.616634
0.626072
0.636505
0.647957
0.660468
0.674
0.688561
0.704141
0.720766
0.738408
0.757137
0.77692
0.797813
0.819946
0.843715
0.869268
0.895931
0.924677
0.956811
0.993255
1.03454
1.08179
1.13893
1.21288
1.30647
1.34978
1.14754
0.821963
0.7911
0.791204
0.791724
0.792438
0.793475
0.794835
0.796386
0.797773
0.798718
0.799552
0.800398
0.801267
0.802152
0.803054
0.803979
0.80493
0.805909
0.806917
0.807959
0.809037
0.810156
0.811323
0.812542
0.813815
0.815139
0.816494
0.817863
0.819239
0.82063
0.822147
0.823894
0.826254
0.829877
0.836058
0.84706
0.866558
0.900004
0.954876
1.04047
1.16629
1.33655
1.53977
1.74019
1.88947
1.97226
1.99862
2.00209
2.0009
1.99845
1.99538
1.99225
1.98943
1.98688
1.98473
1.983
1.98156
1.98021
1.97879
1.97725
1.97561
1.97395
1.97235
1.97084
1.96942
1.96805
1.96669
1.96531
1.9639
1.96248
1.96105
1.95962
1.95821
0.45128
0.452083
0.452213
0.453153
0.454491
0.456115
0.457926
0.460012
0.462185
0.46456
0.467078
0.469719
0.472442
0.475228
0.478058
0.480913
0.483771
0.486617
0.489431
0.492201
0.494921
0.497588
0.500205
0.502769
0.505285
0.507761
0.510207
0.512637
0.51506
0.517478
0.519894
0.52231
0.524737
0.52721
0.529722
0.532288
0.534807
0.537282
0.539631
0.541716
0.543694
0.54558
0.547378
0.549095
0.550713
0.552214
0.553594
0.554884
0.556125
0.557346
0.558546
0.559749
0.561007
0.562365
0.563862
0.565555
0.567489
0.569727
0.572348
0.575444
0.579095
0.583379
0.588358
0.59411
0.600696
0.60818
0.616607
0.626005
0.636403
0.647819
0.66029
0.673785
0.688321
0.703871
0.720468
0.738105
0.756836
0.776665
0.797701
0.819966
0.843529
0.868453
0.895173
0.924079
0.956104
0.991952
1.03263
1.07993
1.13768
1.21325
1.30826
1.35197
1.12769
0.814611
0.788512
0.789169
0.790295
0.791519
0.792786
0.793996
0.795075
0.795969
0.79679
0.797618
0.798468
0.799338
0.800227
0.801141
0.802082
0.803053
0.804055
0.805089
0.806158
0.807265
0.808413
0.80961
0.810858
0.812157
0.8135
0.814869
0.816248
0.817632
0.819025
0.820541
0.822302
0.824636
0.828257
0.834433
0.845427
0.864915
0.898346
0.953195
1.03873
1.16438
1.33429
1.5371
1.73728
1.88656
1.96923
1.99732
2.00108
2.00025
1.99813
1.99526
1.99222
1.98944
1.9869
1.98474
1.98301
1.98156
1.98021
1.97879
1.97725
1.97561
1.97396
1.97235
1.97084
1.96942
1.96806
1.96669
1.96531
1.9639
1.96248
1.96105
1.95962
1.95821
0.452274
0.453469
0.453546
0.454491
0.45571
0.457312
0.459085
0.461184
0.463365
0.465726
0.468207
0.470799
0.473468
0.476198
0.478975
0.481781
0.484592
0.487392
0.490162
0.492893
0.495579
0.498218
0.500813
0.50336
0.505858
0.508315
0.510739
0.513144
0.515541
0.517933
0.520324
0.522717
0.525124
0.527584
0.530082
0.53263
0.535136
0.53758
0.539914
0.541981
0.543932
0.545802
0.547591
0.5493
0.550909
0.552402
0.553778
0.55507
0.556318
0.557547
0.558757
0.559966
0.561209
0.562547
0.56403
0.565716
0.567644
0.569876
0.57249
0.575579
0.579225
0.583491
0.58845
0.594171
0.600709
0.60815
0.616528
0.625874
0.636224
0.647595
0.660021
0.673479
0.687996
0.703535
0.720128
0.737769
0.756495
0.776326
0.797357
0.819619
0.843201
0.868279
0.89528
0.924513
0.956692
0.992493
1.03331
1.08061
1.1385
1.21512
1.30898
1.34998
1.1016
0.807593
0.786765
0.787808
0.789101
0.790266
0.791287
0.792176
0.792968
0.793738
0.794536
0.795362
0.79621
0.797081
0.797978
0.798905
0.799863
0.800854
0.801877
0.802935
0.804027
0.805156
0.806326
0.807543
0.808808
0.810119
0.81147
0.812841
0.814217
0.815594
0.816978
0.818471
0.820222
0.822517
0.826116
0.832268
0.843244
0.862713
0.896119
0.950931
1.03639
1.16189
1.33156
1.534
1.73382
1.88306
1.96525
1.99526
1.99957
1.99918
1.99753
1.99495
1.9921
1.98941
1.9869
1.98475
1.98302
1.98157
1.98022
1.9788
1.97725
1.97562
1.97396
1.97235
1.97084
1.96942
1.96806
1.9667
1.96531
1.9639
1.96248
1.96105
1.95962
1.95822
0.453716
0.454976
0.455136
0.456115
0.457312
0.458879
0.460636
0.462672
0.464849
0.467176
0.469606
0.472131
0.474729
0.47739
0.480101
0.482845
0.485598
0.48834
0.491054
0.493735
0.49638
0.498985
0.501553
0.504077
0.506552
0.508982
0.511377
0.513751
0.516119
0.518484
0.52085
0.523223
0.525613
0.528065
0.530553
0.533091
0.535583
0.538005
0.54031
0.542352
0.544271
0.546113
0.547876
0.549563
0.551152
0.552627
0.553996
0.55529
0.556543
0.557778
0.558991
0.560192
0.561417
0.562736
0.564205
0.565879
0.5678
0.570026
0.572633
0.575711
0.579344
0.583588
0.588521
0.59421
0.600709
0.608116
0.616452
0.625757
0.636068
0.6474
0.659781
0.6732
0.687688
0.703203
0.719767
0.737369
0.756046
0.775845
0.796875
0.819181
0.842862
0.868137
0.895336
0.924774
0.957111
0.992945
1.03389
1.08141
1.13989
1.21856
1.31017
1.34806
1.07062
0.800629
0.784777
0.78577
0.786852
0.787729
0.788478
0.789189
0.789914
0.79068
0.791481
0.792309
0.793162
0.794045
0.794959
0.795906
0.796887
0.797903
0.798954
0.80004
0.801162
0.80232
0.803518
0.804761
0.80605
0.807385
0.808755
0.810142
0.811528
0.81291
0.814299
0.815785
0.817531
0.819807
0.823387
0.82953
0.840507
0.859985
0.893406
0.948231
1.03369
1.15914
1.32862
1.53061
1.72991
1.87909
1.96054
1.99187
1.99763
1.99763
1.99653
1.99437
1.99179
1.98929
1.98688
1.98475
1.98303
1.98158
1.98022
1.9788
1.97726
1.97562
1.97396
1.97235
1.97084
1.96942
1.96806
1.9667
1.96531
1.9639
1.96248
1.96105
1.95962
1.95822
0.455553
0.45679
0.457112
0.457926
0.459085
0.460636
0.462424
0.464418
0.46657
0.468834
0.471191
0.473638
0.476162
0.478754
0.481401
0.484084
0.486775
0.489458
0.492114
0.494744
0.497344
0.499912
0.502449
0.504944
0.507388
0.509785
0.512143
0.514479
0.516813
0.519147
0.521487
0.523836
0.526205
0.52864
0.531112
0.533627
0.536093
0.538478
0.540745
0.542755
0.544639
0.546448
0.548184
0.549845
0.551414
0.552875
0.554241
0.555541
0.556803
0.558041
0.559247
0.560433
0.56164
0.562943
0.564397
0.566062
0.567976
0.570195
0.572792
0.575854
0.579467
0.58368
0.588583
0.594234
0.600698
0.608065
0.616357
0.625621
0.635892
0.647179
0.659509
0.672885
0.687334
0.702813
0.719338
0.736899
0.75555
0.775356
0.796419
0.818771
0.842545
0.867976
0.895326
0.924926
0.957394
0.993363
1.03439
1.08241
1.14223
1.22258
1.31221
1.34291
1.03436
0.793268
0.781901
0.782687
0.783518
0.7842
0.784852
0.78554
0.786273
0.787043
0.787843
0.788671
0.789532
0.790426
0.791355
0.792321
0.793325
0.794365
0.795443
0.796557
0.797708
0.798895
0.800121
0.80139
0.802705
0.804064
0.805456
0.806864
0.808265
0.809659
0.81106
0.812549
0.814298
0.816571
0.820142
0.826295
0.837298
0.85682
0.890309
0.945219
1.03077
1.15625
1.32559
1.52707
1.72566
1.87472
1.95541
1.98695
1.99492
1.99569
1.99508
1.99341
1.99121
1.98899
1.98677
1.98473
1.98303
1.98159
1.98023
1.97881
1.97726
1.97562
1.97396
1.97235
1.97084
1.96942
1.96806
1.9667
1.96531
1.96391
1.96248
1.96105
1.95962
1.95822
0.457664
0.458639
0.459183
0.460012
0.461184
0.462672
0.464418
0.466345
0.468442
0.470636
0.472924
0.475298
0.477753
0.480279
0.482861
0.485479
0.488105
0.490724
0.49332
0.495894
0.498446
0.500972
0.503471
0.505931
0.508338
0.510695
0.513012
0.515309
0.517608
0.519909
0.522219
0.52454
0.526882
0.529292
0.53174
0.534228
0.536662
0.539012
0.541237
0.543214
0.54506
0.546831
0.548533
0.550165
0.551712
0.553162
0.554532
0.555839
0.557104
0.558334
0.559524
0.560688
0.561875
0.563163
0.564604
0.56626
0.568167
0.570377
0.572962
0.576002
0.579586
0.583765
0.588633
0.594248
0.600679
0.608009
0.616257
0.62548
0.635709
0.646951
0.659231
0.672565
0.686966
0.702391
0.71886
0.736374
0.755003
0.774805
0.795871
0.818246
0.842104
0.867671
0.895151
0.924905
0.957431
0.993665
1.03507
1.08363
1.14468
1.2277
1.31504
1.33304
0.993537
0.785599
0.777971
0.778626
0.779335
0.779964
0.780614
0.781311
0.782046
0.782812
0.783611
0.784443
0.785313
0.786221
0.787168
0.788155
0.789182
0.790249
0.791356
0.7925
0.793681
0.794899
0.796157
0.797456
0.798802
0.800189
0.80161
0.803045
0.80447
0.805886
0.807311
0.808819
0.810588
0.81288
0.816466
0.822656
0.833719
0.853329
0.886945
0.942016
1.02774
1.15332
1.32256
1.52349
1.72113
1.86993
1.95009
1.98104
1.99073
1.9932
1.99314
1.99201
1.99027
1.98842
1.98649
1.98461
1.983
1.9816
1.98025
1.97882
1.97727
1.97562
1.97396
1.97235
1.97084
1.96942
1.96806
1.9667
1.96531
1.96391
1.96248
1.96105
1.95962
1.95822
0.460168
0.460851
0.461288
0.462185
0.463365
0.464849
0.46657
0.468442
0.470468
0.472581
0.474793
0.477093
0.479478
0.481938
0.484455
0.487008
0.48957
0.492126
0.494661
0.497178
0.499678
0.502158
0.504612
0.507029
0.509392
0.511705
0.51398
0.516237
0.5185
0.520766
0.523041
0.525328
0.527634
0.530011
0.532429
0.534884
0.537283
0.53959
0.541769
0.543703
0.545504
0.547232
0.548898
0.550504
0.552037
0.553488
0.554866
0.55618
0.55744
0.558651
0.559814
0.560952
0.562119
0.563396
0.564825
0.566474
0.568374
0.570572
0.573141
0.576154
0.579707
0.583849
0.588681
0.594261
0.600658
0.607949
0.616147
0.625325
0.635503
0.646692
0.658921
0.672206
0.686543
0.701895
0.718298
0.735776
0.754393
0.774198
0.795262
0.817678
0.841635
0.867321
0.894879
0.924748
0.957456
0.994014
1.0357
1.08534
1.14786
1.23361
1.31646
1.31663
0.949607
0.777873
0.77325
0.773883
0.774561
0.775188
0.775843
0.776539
0.777271
0.778037
0.77884
0.779684
0.780569
0.781497
0.782467
0.783481
0.784538
0.785637
0.786777
0.787956
0.789174
0.79043
0.791726
0.793063
0.794446
0.795871
0.797329
0.798801
0.800261
0.801712
0.803175
0.804719
0.806525
0.808858
0.812484
0.818739
0.829893
0.849632
0.883424
0.938719
1.02468
1.15042
1.31958
1.51993
1.71646
1.86466
1.94467
1.97474
1.98505
1.98952
1.9906
1.99011
1.98891
1.9875
1.98596
1.98433
1.98287
1.98157
1.98025
1.97883
1.97728
1.97563
1.97396
1.97235
1.97084
1.96942
1.96806
1.9667
1.96531
1.96391
1.96248
1.96105
1.95962
1.95822
0.46273
0.463215
0.463638
0.46456
0.465726
0.467176
0.468834
0.470636
0.472581
0.474622
0.476766
0.478999
0.481319
0.483715
0.486167
0.488657
0.491155
0.493648
0.496122
0.498581
0.501026
0.503453
0.505855
0.508222
0.510536
0.512803
0.515036
0.517253
0.519479
0.521707
0.523942
0.526189
0.528451
0.530787
0.533167
0.535583
0.53794
0.540198
0.542325
0.54421
0.54596
0.547642
0.549277
0.550867
0.5524
0.55386
0.555246
0.556558
0.557798
0.558978
0.560106
0.561216
0.562367
0.563635
0.565055
0.566698
0.568587
0.57077
0.57332
0.576304
0.579823
0.583927
0.588722
0.594263
0.600619
0.607867
0.616012
0.625139
0.635259
0.646392
0.65857
0.671799
0.686062
0.701338
0.717683
0.735131
0.753731
0.773525
0.794571
0.817043
0.841084
0.866816
0.894431
0.924485
0.957404
0.994373
1.03682
1.08722
1.1515
1.24014
1.31891
1.28946
0.905236
0.770413
0.767997
0.768644
0.769314
0.76994
0.770595
0.771293
0.77203
0.772808
0.77363
0.774496
0.775408
0.776367
0.777372
0.778423
0.779519
0.78066
0.781844
0.783068
0.784332
0.785634
0.786977
0.788362
0.789792
0.791264
0.79277
0.79429
0.795796
0.797294
0.798805
0.800398
0.802256
0.804644
0.80833
0.814668
0.825937
0.845834
0.87984
0.935406
1.02166
1.14762
1.31672
1.51645
1.71173
1.85903
1.93894
1.96817
1.97861
1.98444
1.98702
1.98753
1.98705
1.98618
1.98509
1.98381
1.98259
1.98144
1.98023
1.97884
1.9773
1.97564
1.97397
1.97236
1.97084
1.96942
1.96806
1.9667
1.96531
1.96391
1.96248
1.96105
1.95962
1.95822
0.465412
0.465766
0.466193
0.467078
0.468207
0.469606
0.471191
0.472924
0.474793
0.476766
0.478841
0.481008
0.483262
0.485594
0.487982
0.49041
0.492846
0.495276
0.497689
0.500087
0.502472
0.504841
0.507182
0.509491
0.511752
0.513971
0.516162
0.518341
0.520528
0.522713
0.524901
0.527102
0.529316
0.531606
0.533942
0.536313
0.538624
0.540824
0.542894
0.544721
0.546418
0.548058
0.549673
0.551261
0.552806
0.554278
0.555662
0.556956
0.558163
0.559301
0.560393
0.561478
0.562616
0.563878
0.565288
0.566923
0.568799
0.570962
0.573489
0.576442
0.579928
0.583992
0.588749
0.594245
0.600554
0.607753
0.615841
0.624914
0.634973
0.646045
0.658169
0.671328
0.685514
0.70073
0.717021
0.734441
0.753013
0.772784
0.793829
0.816375
0.840457
0.866203
0.893956
0.924162
0.957472
0.994914
1.03786
1.08964
1.15603
1.24796
1.31918
1.25209
0.861995
0.763316
0.762357
0.763031
0.763691
0.76432
0.764988
0.765702
0.766462
0.767269
0.768124
0.769028
0.769982
0.770985
0.772037
0.773138
0.774286
0.775481
0.776718
0.777998
0.779316
0.780674
0.782072
0.783512
0.784998
0.786525
0.788084
0.789658
0.791217
0.792768
0.794333
0.795981
0.797895
0.800345
0.8041
0.810529
0.821928
0.842004
0.876254
0.932131
1.01873
1.14497
1.31403
1.51313
1.70708
1.85315
1.93265
1.96131
1.97187
1.97835
1.98214
1.98398
1.9845
1.98437
1.98384
1.98299
1.98206
1.98115
1.98011
1.97882
1.97731
1.97566
1.97399
1.97237
1.97085
1.96942
1.96806
1.9667
1.96531
1.96391
1.96248
1.96105
1.95962
1.95822
0.468177
0.468447
0.468885
0.469719
0.470799
0.472131
0.473638
0.475298
0.477093
0.478999
0.481008
0.48311
0.4853
0.487569
0.489893
0.492258
0.49463
0.496998
0.49935
0.501685
0.504007
0.506311
0.508586
0.510833
0.513038
0.515208
0.517358
0.519496
0.521638
0.523773
0.525906
0.528053
0.530214
0.532452
0.534739
0.537059
0.539317
0.541454
0.543461
0.545229
0.546878
0.548489
0.550099
0.551698
0.553258
0.554735
0.5561
0.557358
0.558519
0.559612
0.56067
0.561733
0.562861
0.564118
0.565518
0.567141
0.568997
0.571136
0.573637
0.57656
0.58001
0.584035
0.588751
0.594196
0.600452
0.607596
0.615622
0.62464
0.634634
0.645642
0.657708
0.670788
0.684906
0.700081
0.71631
0.733701
0.752234
0.771973
0.793052
0.815643
0.839712
0.865512
0.893437
0.923877
0.957611
0.995444
1.03927
1.0928
1.16166
1.25699
1.31711
1.20207
0.823006
0.756586
0.756465
0.757165
0.757826
0.758476
0.759173
0.759923
0.760723
0.761574
0.762478
0.763434
0.764443
0.765504
0.766615
0.767777
0.768986
0.770242
0.771541
0.772882
0.774261
0.775679
0.777137
0.778636
0.78018
0.781764
0.783378
0.785006
0.786619
0.788222
0.789841
0.791544
0.793512
0.796024
0.799848
0.806371
0.817906
0.838177
0.872699
0.928928
1.01593
1.14251
1.31157
1.51005
1.7025
1.84715
1.92574
1.95408
1.96484
1.97171
1.97623
1.9792
1.98098
1.98189
1.9821
1.9818
1.98123
1.98062
1.97983
1.97872
1.97729
1.97568
1.97401
1.97238
1.97086
1.96943
1.96806
1.9667
1.96531
1.9639
1.96248
1.96105
1.95962
1.95822
0.471024
0.471226
0.471669
0.472442
0.473468
0.474729
0.476162
0.477753
0.479478
0.481319
0.483262
0.4853
0.487425
0.489629
0.491886
0.494184
0.496489
0.498791
0.501079
0.50335
0.505605
0.50784
0.510046
0.512227
0.514375
0.516498
0.518605
0.520698
0.52279
0.524869
0.526941
0.529032
0.531138
0.533324
0.535556
0.537822
0.540021
0.542093
0.544032
0.545747
0.547358
0.548953
0.550568
0.552181
0.553747
0.555209
0.556537
0.557743
0.558853
0.559902
0.560934
0.56198
0.5631
0.564353
0.56574
0.567348
0.56918
0.571289
0.573763
0.576652
0.580063
0.584047
0.588718
0.594106
0.600306
0.607388
0.61535
0.624311
0.634238
0.645184
0.657185
0.670179
0.684241
0.699376
0.715537
0.732909
0.751397
0.771113
0.792259
0.814818
0.838893
0.864851
0.892945
0.923674
0.95783
0.996154
1.0413
1.09644
1.16856
1.26454
1.31562
1.13804
0.789959
0.75013
0.75045
0.751183
0.751863
0.75255
0.753294
0.754093
0.754948
0.755856
0.75682
0.757839
0.758912
0.760037
0.761215
0.762442
0.763717
0.765038
0.766401
0.767805
0.769246
0.770725
0.772241
0.773799
0.775399
0.777037
0.778704
0.780383
0.782045
0.783697
0.785365
0.787116
0.789133
0.791702
0.795592
0.80221
0.813888
0.83437
0.869192
0.92582
1.01329
1.14028
1.30937
1.50723
1.69802
1.84108
1.91825
1.9464
1.95751
1.96474
1.96969
1.97339
1.97626
1.9784
1.97974
1.98015
1.98005
1.97979
1.9793
1.97845
1.97719
1.97566
1.97402
1.9724
1.97087
1.96944
1.96806
1.9667
1.96531
1.9639
1.96248
1.96105
1.95962
1.95822
0.473928
0.474074
0.474516
0.475228
0.476198
0.47739
0.478754
0.480279
0.481938
0.483715
0.485594
0.487569
0.489629
0.491766
0.493953
0.49618
0.498416
0.50065
0.502873
0.505078
0.507264
0.509428
0.511563
0.513677
0.515767
0.517839
0.519898
0.521939
0.52397
0.525985
0.52799
0.530023
0.532075
0.534207
0.536384
0.538593
0.540732
0.542741
0.544618
0.546291
0.547878
0.54947
0.551091
0.552706
0.554254
0.555676
0.556949
0.558094
0.559156
0.560169
0.561182
0.562216
0.563328
0.564572
0.565942
0.567532
0.569335
0.571412
0.573856
0.576707
0.580077
0.58402
0.588641
0.593971
0.600114
0.607127
0.615023
0.623922
0.633777
0.644662
0.656589
0.669505
0.68352
0.698604
0.714707
0.732054
0.75049
0.7702
0.791404
0.813898
0.838079
0.864234
0.892459
0.923651
0.958039
0.997383
1.04389
1.10053
1.17698
1.27251
1.31175
1.05981
0.764962
0.743886
0.744429
0.745197
0.745911
0.74665
0.74745
0.748309
0.749225
0.750198
0.751228
0.752314
0.753455
0.754648
0.755893
0.757186
0.758527
0.759911
0.761337
0.762801
0.764301
0.765836
0.767408
0.769019
0.77067
0.772358
0.774073
0.775797
0.777503
0.779197
0.780909
0.782703
0.784764
0.787384
0.791337
0.798051
0.80988
0.830591
0.865747
0.922821
1.01082
1.13829
1.30746
1.50465
1.69368
1.83489
1.91038
1.93829
1.94979
1.95743
1.96273
1.96689
1.97053
1.97372
1.97632
1.97791
1.97847
1.97861
1.97847
1.97794
1.97693
1.97557
1.97401
1.97242
1.9709
1.96946
1.96807
1.9667
1.96531
1.9639
1.96248
1.96105
1.95962
1.95822
0.476868
0.476967
0.477403
0.478058
0.478975
0.480101
0.481401
0.482861
0.484455
0.486167
0.487982
0.489893
0.491886
0.493953
0.496066
0.498218
0.500381
0.502544
0.5047
0.506838
0.508955
0.511051
0.513119
0.515171
0.517206
0.519226
0.521235
0.523216
0.525181
0.527127
0.529062
0.531035
0.533036
0.535117
0.537239
0.53939
0.541471
0.543423
0.545246
0.546889
0.548461
0.55005
0.551663
0.553251
0.554752
0.556109
0.557318
0.558403
0.559425
0.560413
0.561413
0.562437
0.56354
0.564769
0.56612
0.567688
0.569456
0.571498
0.573909
0.576721
0.58005
0.583952
0.588518
0.593789
0.59987
0.606803
0.614633
0.623457
0.633236
0.644062
0.65591
0.668768
0.682733
0.697747
0.713812
0.731117
0.749508
0.769242
0.790463
0.81296
0.837298
0.863613
0.89208
0.923729
0.958586
0.999092
1.04686
1.10576
1.18753
1.27764
1.3008
0.974541
0.747451
0.737797
0.738473
0.739276
0.740035
0.740832
0.741694
0.742616
0.743597
0.744637
0.745734
0.746887
0.748094
0.749353
0.750663
0.75202
0.753422
0.754866
0.756349
0.757869
0.759424
0.761011
0.762633
0.764292
0.76599
0.767723
0.769479
0.771243
0.772987
0.774719
0.776469
0.7783
0.780401
0.783068
0.787084
0.793896
0.805885
0.826847
0.86237
0.919941
1.00854
1.13655
1.30586
1.50229
1.68955
1.82865
1.90227
1.92978
1.94165
1.94972
1.95538
1.9599
1.96407
1.96804
1.9717
1.9746
1.97631
1.97707
1.97731
1.97712
1.97644
1.97532
1.97392
1.97241
1.97091
1.96948
1.96809
1.96671
1.96532
1.96391
1.96248
1.96105
1.95962
1.95822
0.479819
0.479878
0.480309
0.480913
0.481781
0.482845
0.484084
0.485479
0.487008
0.488657
0.49041
0.492258
0.494184
0.49618
0.498218
0.500293
0.50238
0.50447
0.506555
0.508623
0.510671
0.512701
0.514705
0.516697
0.518678
0.520644
0.522595
0.524512
0.526404
0.52828
0.530146
0.532063
0.534016
0.53605
0.53812
0.540216
0.542244
0.544147
0.54593
0.547551
0.549109
0.550684
0.552263
0.553793
0.555221
0.556499
0.557645
0.558678
0.559671
0.560639
0.561627
0.562638
0.563726
0.564934
0.56626
0.5678
0.569532
0.571538
0.573917
0.576688
0.579974
0.583836
0.58834
0.59355
0.599558
0.606404
0.614167
0.622901
0.632604
0.643365
0.655133
0.667954
0.681856
0.696794
0.712844
0.730086
0.748459
0.768229
0.78943
0.812035
0.83653
0.863011
0.891884
0.923941
0.959545
1.00115
1.05045
1.1126
1.19978
1.28327
1.27018
0.893638
0.735408
0.731833
0.732609
0.733446
0.734254
0.735112
0.736037
0.737024
0.73807
0.739175
0.740337
0.741555
0.742825
0.744147
0.745517
0.746933
0.748392
0.749891
0.751428
0.752999
0.754603
0.756237
0.757905
0.759607
0.761348
0.763121
0.764915
0.766714
0.768492
0.770257
0.772041
0.773906
0.776042
0.778754
0.782832
0.789749
0.801909
0.823142
0.859069
0.917189
1.00645
1.13506
1.30457
1.50018
1.68562
1.8224
1.89401
1.92094
1.93309
1.94158
1.94762
1.95249
1.95706
1.96162
1.96608
1.97009
1.97312
1.97496
1.97579
1.97598
1.97565
1.97483
1.97367
1.97232
1.9709
1.9695
1.96812
1.96673
1.96533
1.96391
1.96248
1.96105
1.95962
1.95822
0.48276
0.482783
0.483211
0.483771
0.484592
0.485598
0.486775
0.488105
0.48957
0.491155
0.492846
0.49463
0.496489
0.498416
0.500381
0.50238
0.504393
0.506409
0.508422
0.510421
0.512402
0.51437
0.516316
0.518254
0.520183
0.522093
0.523984
0.525833
0.527651
0.529456
0.531258
0.533121
0.535029
0.537019
0.53904
0.541082
0.543062
0.544919
0.546666
0.548266
0.5498
0.551337
0.552854
0.554301
0.555643
0.556843
0.557936
0.55893
0.5599
0.560851
0.561825
0.562821
0.563889
0.565068
0.566361
0.567865
0.569558
0.571526
0.57387
0.576593
0.579834
0.58365
0.588085
0.593234
0.599159
0.605915
0.61361
0.622245
0.631875
0.642559
0.654247
0.667035
0.680859
0.695736
0.71178
0.728962
0.747363
0.767171
0.78835
0.811156
0.835788
0.862523
0.891838
0.924338
0.960943
1.00365
1.05495
1.12092
1.21385
1.28687
1.21569
0.824508
0.726757
0.725977
0.726837
0.727708
0.728568
0.729488
0.730476
0.731525
0.732634
0.733802
0.735026
0.736305
0.737636
0.739016
0.740442
0.741913
0.743425
0.744975
0.746561
0.748179
0.749828
0.751507
0.753217
0.754959
0.756738
0.758548
0.760378
0.762209
0.764017
0.765811
0.767626
0.769522
0.771691
0.774445
0.778587
0.785612
0.797957
0.819484
0.85585
0.914575
1.00457
1.13385
1.30363
1.49838
1.68189
1.81615
1.88562
1.91187
1.92419
1.93304
1.93945
1.94467
1.9496
1.95463
1.95971
1.96455
1.96873
1.97184
1.97373
1.97449
1.97452
1.97407
1.9732
1.97207
1.97081
1.96949
1.96813
1.96676
1.96535
1.96392
1.96249
1.96105
1.95962
1.95821
0.485678
0.485669
0.486093
0.486617
0.487392
0.48834
0.489458
0.490724
0.492126
0.493648
0.495276
0.496998
0.498791
0.50065
0.502544
0.50447
0.506409
0.50835
0.510289
0.512217
0.514133
0.516041
0.517935
0.519823
0.521701
0.523556
0.525385
0.527167
0.528912
0.530653
0.532398
0.534213
0.536079
0.538027
0.540002
0.541992
0.543922
0.545733
0.547444
0.549013
0.550507
0.551983
0.553418
0.554772
0.556032
0.557166
0.55822
0.559184
0.560133
0.561064
0.562019
0.562992
0.564029
0.565164
0.566414
0.567878
0.569521
0.571447
0.573749
0.576421
0.579616
0.583379
0.587743
0.592829
0.598661
0.605325
0.612943
0.621473
0.631032
0.641623
0.653233
0.665978
0.679727
0.694575
0.710606
0.727759
0.74622
0.766058
0.78729
0.810357
0.835138
0.862183
0.891986
0.925038
0.962739
1.00675
1.0606
1.13121
1.22938
1.28692
1.13759
0.771303
0.719895
0.720214
0.721151
0.722051
0.722967
0.723949
0.724997
0.726108
0.727278
0.728507
0.72979
0.731127
0.732514
0.733949
0.735429
0.736951
0.738512
0.74011
0.741742
0.743405
0.745097
0.746817
0.748566
0.750347
0.752162
0.754007
0.755869
0.75773
0.759566
0.761387
0.76323
0.765153
0.767352
0.770148
0.774355
0.781494
0.794036
0.815882
0.852729
0.912121
1.00293
1.13299
1.30306
1.49695
1.67837
1.80988
1.87712
1.90263
1.91504
1.92415
1.93087
1.93642
1.94172
1.94716
1.95273
1.95822
1.96328
1.96753
1.97067
1.97247
1.97306
1.97297
1.97245
1.97161
1.97057
1.9694
1.96813
1.96677
1.96538
1.96394
1.9625
1.96106
1.95962
1.95821
0.488557
0.488514
0.488937
0.489431
0.490162
0.491054
0.492114
0.49332
0.494661
0.496122
0.497689
0.49935
0.501079
0.502873
0.5047
0.506555
0.508422
0.510289
0.512153
0.514012
0.515864
0.517715
0.519558
0.521398
0.523227
0.525026
0.526792
0.528508
0.530185
0.531868
0.533564
0.535336
0.537162
0.539066
0.540993
0.542925
0.544801
0.546559
0.548227
0.549748
0.551182
0.552584
0.553932
0.555202
0.556397
0.557486
0.558514
0.559457
0.560384
0.561292
0.562222
0.563163
0.564162
0.565239
0.566434
0.567844
0.569431
0.57131
0.573561
0.576172
0.579308
0.582998
0.587282
0.592294
0.598028
0.604605
0.612141
0.620574
0.630066
0.640566
0.652109
0.664791
0.678479
0.693322
0.709327
0.726495
0.745062
0.764976
0.786342
0.809628
0.834635
0.862055
0.892415
0.926149
0.965059
1.01065
1.06756
1.1441
1.24303
1.28314
1.03687
0.736066
0.713827
0.714545
0.71553
0.71647
0.717443
0.718486
0.719595
0.720765
0.721995
0.723281
0.724622
0.726014
0.727455
0.728942
0.730473
0.732043
0.733652
0.735296
0.736972
0.738678
0.740411
0.742171
0.743959
0.745776
0.747626
0.749504
0.751395
0.753284
0.755146
0.756991
0.758858
0.760806
0.763033
0.765868
0.770143
0.777403
0.790157
0.81235
0.849724
0.909851
1.00156
1.1325
1.30289
1.49589
1.67505
1.8036
1.86853
1.89327
1.90567
1.91496
1.92194
1.92778
1.93341
1.93923
1.94524
1.95126
1.95701
1.96217
1.96643
1.96948
1.97109
1.97154
1.97138
1.97088
1.97012
1.96917
1.96805
1.96677
1.96539
1.96397
1.96252
1.96107
1.95963
1.95822
0.491394
0.491313
0.49173
0.492201
0.492893
0.493735
0.494744
0.495894
0.497178
0.498581
0.500087
0.501685
0.50335
0.505078
0.506838
0.508623
0.510421
0.512217
0.514012
0.515805
0.517595
0.519391
0.521185
0.522976
0.524754
0.526496
0.528201
0.529855
0.53147
0.533102
0.534755
0.536489
0.538274
0.540128
0.541999
0.543866
0.545676
0.547371
0.548985
0.550439
0.551806
0.553134
0.554409
0.555616
0.556769
0.557834
0.558844
0.55977
0.56067
0.561548
0.562442
0.56334
0.564285
0.565287
0.566415
0.567759
0.569283
0.571108
0.573294
0.575831
0.578892
0.582493
0.586691
0.591625
0.597263
0.603764
0.611207
0.619551
0.628977
0.639391
0.650877
0.663482
0.677133
0.69199
0.707987
0.725225
0.743915
0.763927
0.785482
0.808975
0.834383
0.862186
0.893078
0.92781
0.968078
1.01553
1.07602
1.16016
1.25213
1.26829
0.926624
0.715734
0.708066
0.708958
0.709977
0.71096
0.711993
0.713096
0.714264
0.715493
0.71678
0.718123
0.719518
0.720964
0.722457
0.723995
0.725574
0.727192
0.728847
0.730536
0.732256
0.734003
0.735777
0.737575
0.739401
0.741254
0.743137
0.745045
0.746965
0.748879
0.750764
0.752631
0.75452
0.756489
0.758742
0.761616
0.76596
0.77335
0.786333
0.808905
0.846853
0.907781
1.00047
1.13235
1.30307
1.49517
1.67192
1.79733
1.85987
1.8838
1.89614
1.90554
1.91271
1.91879
1.92471
1.93088
1.93728
1.94376
1.95007
1.95596
1.96113
1.9653
1.96818
1.96962
1.96998
1.96984
1.9694
1.96872
1.96782
1.96669
1.96539
1.96399
1.96255
1.96109
1.95964
1.95822
0.494177
0.494058
0.494465
0.494921
0.495579
0.49638
0.497344
0.498446
0.499678
0.501026
0.502472
0.504007
0.505605
0.507264
0.508955
0.510671
0.512402
0.514133
0.515864
0.517595
0.519327
0.521069
0.522812
0.524551
0.526275
0.527958
0.5296
0.531197
0.532758
0.534346
0.535963
0.537659
0.5394
0.541199
0.543006
0.544799
0.54653
0.54815
0.549695
0.551071
0.552374
0.553638
0.554861
0.55603
0.55716
0.558214
0.559212
0.560123
0.560997
0.561839
0.562689
0.56353
0.564404
0.565317
0.566371
0.567646
0.5691
0.57086
0.57296
0.575408
0.578371
0.581863
0.585965
0.590803
0.596346
0.60277
0.610117
0.618388
0.627751