/*--------------------------------*- C++ -*----------------------------------*\
  =========                 |
  \\      /  F ield         | OpenFOAM: The Open Source CFD Toolbox
   \\    /   O peration     | Website:  https://openfoam.org
    \\  /    A nd           | Version:  13
     \\/     M anipulation  |
\*---------------------------------------------------------------------------*/
FoamFile
{
    format      ascii;
    class       volScalarField;
    location    "0.0017";
    object      T;
}
// * * * * * * * * * * * * * * * * * * * * * * * * * * * * * * * * * * * * * //

dimensions      [0 0 0 1 0 0 0];

internalField   nonuniform List<scalar> 
33334
(
2514.88
2515.49
2516.19
2517.46
2518.85
2520.83
2523.28
2526.04
2529.31
2532.65
2536.16
2539.8
2543.59
2547.53
2551.62
2555.84
2560.22
2564.75
2569.44
2574.31
2579.33
2584.47
2589.7
2594.93
2600.12
2605.19
2610.11
2614.82
2619.25
2623.36
2627.12
2630.53
2633.59
2636.3
2638.63
2640.65
2642.36
2644.01
2645.48
2646.99
2648.6
2650.37
2652.38
2654.74
2657.54
2660.8
2664.51
2668.59
2672.94
2677.5
2682.2
2687.02
2691.99
2697.12
2702.27
2707.46
2712.66
2717.86
2723.11
2728.51
2734.16
2740.19
2746.73
2753.9
2761.83
2770.54
2780.13
2790.62
2802.04
2814.44
2827.78
2842.05
2857.16
2873.09
2889.73
2907.09
2925.12
2943.8
2963.21
2983.37
3004.49
3026.74
3052.34
3077.31
3102.27
3128.12
3154.97
3187.84
3227.47
3272.57
3233.45
2180.16
1197.01
934.386
924.236
923.068
921.838
920.526
919.169
917.704
915.959
913.922
912.487
911.309
910.171
909.06
907.985
906.948
905.949
904.984
904.055
903.161
902.302
901.479
900.689
899.927
899.193
898.49
897.826
897.212
896.673
896.211
895.811
895.38
894.732
893.549
891.092
886.018
876.099
858.087
828.07
782.583
720.493
645.024
564.598
491.015
434.608
399.529
383.335
377.824
376.592
376.341
376.369
376.454
376.539
376.562
376.539
376.459
376.312
376.12
375.921
375.741
375.59
375.466
375.356
375.251
375.146
375.036
374.921
374.803
374.685
374.572
374.465
374.365
374.271
374.18
2515.49
2516.24
2516.96
2518.55
2520.45
2522.49
2524.92
2527.34
2530.23
2533.31
2536.64
2540.17
2543.87
2547.73
2551.75
2555.91
2560.23
2564.71
2569.36
2574.17
2579.14
2584.24
2589.42
2594.61
2599.75
2604.8
2609.69
2614.38
2618.81
2622.92
2626.69
2630.11
2633.18
2635.9
2638.25
2640.29
2642.01
2643.64
2645.17
2646.65
2648.24
2650
2651.99
2654.32
2657.08
2660.32
2664
2668.05
2672.38
2676.92
2681.6
2686.4
2691.38
2696.46
2701.59
2706.75
2711.91
2717.06
2722.25
2727.57
2733.11
2739.03
2745.42
2752.42
2760.15
2768.66
2778.03
2788.33
2799.56
2811.73
2824.89
2838.96
2853.9
2869.69
2886.29
2903.61
2921.64
2940.36
2959.74
2979.82
3000.57
3021.87
3042.5
3066.11
3091.78
3119.75
3152.37
3187.51
3227.5
3272.51
3239.38
2212.67
1214.05
935.377
922.81
921.204
919.587
917.865
916.186
914.699
913.577
912.925
911.956
910.849
909.746
908.69
907.669
906.677
905.716
904.786
903.889
903.026
902.196
901.4
900.635
899.897
899.184
898.498
897.851
897.257
896.74
896.302
895.917
895.51
894.883
893.714
891.267
886.21
876.309
858.312
828.304
782.801
720.676
645.177
564.731
491.038
434.488
399.408
383.242
377.802
376.583
376.338
376.367
376.452
376.538
376.561
376.538
376.458
376.311
376.119
375.92
375.74
375.59
375.465
375.355
375.25
375.145
375.035
374.92
374.802
374.684
374.571
374.464
374.364
374.27
374.179
2516.19
2516.96
2517.53
2518.69
2520.48
2522.61
2525.27
2528.03
2530.81
2533.88
2537.23
2540.78
2544.48
2548.34
2552.34
2556.49
2560.8
2565.27
2569.92
2574.73
2579.68
2584.76
2589.91
2595.07
2600.19
2605.21
2610.08
2614.75
2619.15
2623.24
2627
2630.41
2633.47
2636.18
2638.51
2640.53
2642.23
2643.84
2645.38
2646.84
2648.42
2650.17
2652.15
2654.48
2657.23
2660.45
2664.11
2668.14
2672.46
2677
2681.69
2686.49
2691.46
2696.55
2701.71
2706.91
2712.11
2717.32
2722.58
2727.97
2733.62
2739.65
2746.18
2753.34
2761.23
2769.91
2779.47
2789.93
2801.32
2813.64
2826.91
2841.07
2856.08
2871.9
2888.52
2905.84
2923.89
2942.59
2961.97
2982.1
3003.23
3025.5
3048.33
3072.35
3098.44
3127.12
3158.57
3193.05
3232.11
3274.72
3231.47
2177.27
1197.68
932.88
921.725
920.226
918.804
917.429
916.206
915.125
914.137
913.126
911.995
910.856
909.753
908.685
907.65
906.647
905.676
904.738
903.834
902.964
902.127
901.325
900.553
899.809
899.088
898.391
897.727
897.118
896.584
896.131
895.726
895.298
894.655
893.461
890.993
885.916
875.989
857.961
827.918
782.395
720.262
644.762
564.313
490.661
434.222
399.221
383.094
377.74
376.537
376.32
376.355
376.447
376.536
376.56
376.537
376.457
376.31
376.118
375.919
375.739
375.588
375.464
375.354
375.249
375.144
375.034
374.919
374.801
374.683
374.57
374.463
374.363
374.269
374.178
2517.46
2518.55
2518.69
2519.93
2521.71
2523.87
2526.3
2529.1
2531.98
2535.11
2538.42
2541.9
2545.53
2549.31
2553.24
2557.33
2561.59
2566.02
2570.63
2575.4
2580.33
2585.38
2590.5
2595.64
2600.74
2605.76
2610.63
2615.3
2619.7
2623.8
2627.56
2630.97
2634.02
2636.72
2639.03
2641.01
2642.69
2644.27
2645.83
2647.29
2648.87
2650.63
2652.62
2654.96
2657.71
2660.91
2664.54
2668.54
2672.85
2677.38
2682.08
2686.9
2691.86
2696.95
2702.12
2707.34
2712.57
2717.81
2723.1
2728.55
2734.25
2740.35
2746.96
2754.19
2762.16
2770.94
2780.59
2791.15
2802.62
2815.01
2828.32
2842.49
2857.51
2873.32
2889.93
2907.31
2925.44
2944.3
2963.9
2984.22
3005.26
3027.02
3049.81
3073.9
3099.83
3127.96
3158.96
3193.83
3233.46
3276.1
3222.44
2130.91
1175.5
930.285
920.795
919.497
918.264
917.065
915.92
914.787
913.642
912.466
911.296
910.16
909.061
907.995
906.964
905.966
905.003
904.074
903.179
902.319
901.494
900.702
899.942
899.209
898.5
897.813
897.159
896.556
896.027
895.579
895.176
894.748
894.111
892.906
890.432
885.341
875.39
857.323
827.227
781.654
719.492
643.996
563.603
490.083
433.816
398.945
382.864
377.636
376.463
376.287
376.329
376.434
376.532
376.559
376.536
376.456
376.309
376.117
375.918
375.738
375.587
375.463
375.353
375.248
375.143
375.033
374.918
374.8
374.683
374.569
374.463
374.363
374.268
374.178
2518.85
2520.45
2520.48
2521.71
2523.33
2525.47
2527.83
2530.63
2533.52
2536.63
2539.9
2543.32
2546.89
2550.6
2554.47
2558.51
2562.72
2567.11
2571.66
2576.38
2581.25
2586.24
2591.31
2596.41
2601.49
2606.49
2611.34
2615.98
2620.36
2624.44
2628.19
2631.59
2634.62
2637.3
2639.57
2641.52
2643.17
2644.73
2646.31
2647.8
2649.39
2651.17
2653.19
2655.55
2658.31
2661.51
2665.12
2669.11
2673.4
2677.93
2682.64
2687.48
2692.45
2697.54
2702.72
2707.97
2713.23
2718.5
2723.83
2729.31
2735.07
2741.2
2747.85
2755.13
2763.13
2771.97
2781.7
2792.33
2803.89
2816.35
2829.71
2843.91
2858.97
2874.83
2891.49
2908.92
2927.11
2946.02
2965.65
2985.97
3007.06
3028.94
3051.91
3076.22
3102.28
3130.39
3161.43
3196.26
3236.27
3278.03
3205.24
2065.23
1146.29
927.802
920.127
918.955
917.765
916.547
915.32
914.082
912.844
911.63
910.457
909.324
908.226
907.164
906.138
905.147
904.192
903.273
902.388
901.538
900.723
899.941
899.19
898.466
897.764
897.085
896.438
895.84
895.314
894.867
894.464
894.031
893.391
892.172
889.681
884.565
874.574
856.446
826.266
780.601
718.37
642.879
562.607
489.303
433.27
398.583
382.549
377.471
376.352
376.234
376.286
376.407
376.521
376.556
376.535
376.456
376.309
376.117
375.917
375.737
375.587
375.462
375.353
375.248
375.142
375.033
374.918
374.8
374.682
374.569
374.463
374.363
374.268
374.178
2520.83
2522.49
2522.61
2523.87
2525.47
2527.56
2529.89
2532.58
2535.45
2538.51
2541.71
2545.06
2548.53
2552.16
2555.95
2559.92
2564.06
2568.38
2572.87
2577.53
2582.34
2587.27
2592.28
2597.34
2602.39
2607.35
2612.17
2616.78
2621.13
2625.18
2628.9
2632.28
2635.3
2637.96
2640.22
2642.15
2643.79
2645.36
2646.96
2648.48
2650.09
2651.89
2653.93
2656.31
2659.09
2662.3
2665.91
2669.89
2674.17
2678.71
2683.42
2688.26
2693.23
2698.33
2703.53
2708.79
2714.08
2719.38
2724.73
2730.23
2736.01
2742.18
2748.86
2756.18
2764.24
2773.14
2782.94
2793.64
2805.26
2817.79
2831.2
2845.46
2860.58
2876.49
2893.2
2910.64
2928.82
2947.72
2967.37
2987.75
3008.91
3030.98
3054.17
3078.64
3104.85
3133.09
3164.23
3198.94
3238.98
3280.81
3178.5
1986.63
1113.5
925.378
919.335
918.14
916.878
915.565
914.25
912.957
911.701
910.491
909.323
908.194
907.103
906.049
905.032
904.052
903.109
902.201
901.329
900.493
899.691
898.923
898.185
897.473
896.783
896.116
895.479
894.891
894.373
893.932
893.535
893.102
892.461
891.233
888.723
883.577
873.536
855.329
825.042
779.259
716.946
641.476
561.365
488.325
432.579
398.135
382.161
377.205
376.21
376.155
376.218
376.36
376.497
376.547
376.531
376.456
376.31
376.118
375.918
375.737
375.587
375.462
375.352
375.248
375.142
375.032
374.918
374.8
374.682
374.569
374.463
374.363
374.268
374.178
2523.28
2524.92
2525.27
2526.3
2527.83
2529.89
2532.25
2534.87
2537.7
2540.67
2543.77
2547
2550.38
2553.92
2557.63
2561.52
2565.59
2569.84
2574.26
2578.84
2583.59
2588.46
2593.43
2598.44
2603.45
2608.37
2613.15
2617.71
2622.02
2626.02
2629.71
2633.07
2636.06
2638.71
2640.95
2642.87
2644.51
2646.08
2647.7
2649.25
2650.88
2652.69
2654.77
2657.18
2660
2663.22
2666.85
2670.85
2675.15
2679.68
2684.39
2689.23
2694.19
2699.3
2704.51
2709.8
2715.1
2720.42
2725.79
2731.31
2737.11
2743.3
2750.02
2757.39
2765.49
2774.45
2784.28
2795.03
2806.69
2819.26
2832.72
2847.04
2862.23
2878.21
2894.96
2912.43
2930.63
2949.56
2969.25
2989.69
3010.94
3033.16
3056.5
3081.14
3107.44
3135.76
3166.98
3202.04
3242.26
3282.58
3138.56
1898.27
1078.58
922.861
918.207
916.943
915.6
914.227
912.884
911.588
910.341
909.137
907.974
906.851
905.766
904.721
903.715
902.746
901.815
900.921
900.062
899.24
898.453
897.698
896.974
896.276
895.599
894.944
894.319
893.743
893.235
892.803
892.414
891.984
891.344
890.11
887.582
882.402
872.303
854.002
823.588
777.667
715.264
639.821
559.898
487.161
431.749
397.602
381.718
376.825
376.026
376.04
376.123
376.289
376.453
376.527
376.52
376.453
376.31
376.119
375.918
375.738
375.587
375.462
375.352
375.248
375.142
375.032
374.918
374.8
374.682
374.569
374.463
374.363
374.268
374.178
2526.04
2527.34
2528.03
2529.1
2530.63
2532.58
2534.87
2537.39
2540.14
2543.01
2546.01
2549.14
2552.43
2555.87
2559.49
2563.3
2567.28
2571.45
2575.78
2580.3
2584.98
2589.79
2594.71
2599.68
2604.64
2609.51
2614.24
2618.75
2623
2626.97
2630.62
2633.95
2636.93
2639.56
2641.8
2643.72
2645.37
2646.95
2648.58
2650.15
2651.81
2653.64
2655.74
2658.19
2661.03
2664.3
2667.97
2671.99
2676.31
2680.84
2685.54
2690.36
2695.32
2700.44
2705.66
2710.96
2716.29
2721.63
2727.01
2732.55
2738.37
2744.59
2751.34
2758.75
2766.89
2775.89
2785.74
2796.51
2808.21
2820.82
2834.32
2848.71
2863.96
2880
2896.79
2914.3
2932.54
2951.51
2971.25
2991.75
3013.1
3035.44
3058.91
3083.71
3110.08
3138.56
3169.98
3205.35
3246.39
3284.21
3078.39
1800.22
1043.44
920.271
916.7
915.392
914.013
912.628
911.291
910.004
908.764
907.565
906.408
905.291
904.216
903.181
902.186
901.23
900.313
899.433
898.589
897.782
897.01
896.272
895.564
894.88
894.218
893.578
892.967
892.406
891.911
891.493
891.116
890.695
890.061
888.826
886.284
881.072
870.909
852.502
821.943
775.867
713.36
637.943
558.223
485.826
430.788
396.981
381.229
376.368
375.769
375.856
375.999
376.19
376.384
376.488
376.495
376.443
376.309
376.12
375.919
375.738
375.588
375.462
375.352
375.248
375.142
375.032
374.918
374.8
374.682
374.569
374.463
374.363
374.268
374.178
2529.31
2530.23
2530.81
2531.98
2533.52
2535.45
2537.7
2540.14
2542.78
2545.53
2548.42
2551.45
2554.64
2557.99
2561.52
2565.24
2569.13
2573.21
2577.47
2581.91
2586.52
2591.28
2596.15
2601.07
2605.97
2610.78
2615.45
2619.9
2624.11
2628.04
2631.66
2634.97
2637.93
2640.55
2642.79
2644.72
2646.38
2647.98
2649.62
2651.21
2652.88
2654.73
2656.85
2659.33
2662.22
2665.53
2669.25
2673.31
2677.64
2682.17
2686.85
2691.67
2696.63
2701.75
2706.99
2712.31
2717.66
2723.02
2728.42
2733.98
2739.82
2746.06
2752.84
2760.28
2768.45
2777.47
2787.34
2798.13
2809.85
2822.49
2836.04
2850.48
2865.78
2881.84
2898.67
2916.24
2934.55
2953.6
2973.41
2993.99
3015.48
3037.97
3061.54
3086.44
3112.97
3141.72
3173.38
3209.35
3250.7
3285.78
2989.72
1694.03
1010.51
917.645
914.907
913.589
912.202
910.825
909.496
908.216
906.981
905.789
904.64
903.534
902.47
901.449
900.468
899.527
898.626
897.762
896.937
896.147
895.394
894.673
893.983
893.318
892.675
892.052
891.46
890.916
890.44
890.039
889.679
889.272
888.649
887.421
884.868
879.625
869.394
850.869
820.146
773.892
711.262
635.86
556.354
484.329
429.705
396.262
380.705
375.887
375.422
375.579
375.822
376.063
376.287
376.425
376.454
376.418
376.301
376.119
375.92
375.739
375.588
375.463
375.353
375.248
375.142
375.032
374.918
374.8
374.682
374.569
374.463
374.363
374.268
374.178
2532.65
2533.31
2533.88
2535.11
2536.63
2538.51
2540.67
2543.01
2545.53
2548.18
2550.98
2553.91
2557.01
2560.27
2563.71
2567.33
2571.14
2575.13
2579.31
2583.67
2588.22
2592.92
2597.72
2602.58
2607.42
2612.18
2616.79
2621.19
2625.36
2629.26
2632.86
2636.14
2639.09
2641.71
2643.96
2645.9
2647.58
2649.18
2650.83
2652.43
2654.11
2655.98
2658.13
2660.64
2663.58
2666.95
2670.72
2674.81
2679.15
2683.67
2688.33
2693.14
2698.11
2703.25
2708.5
2713.85
2719.22
2724.59
2730.02
2735.59
2741.45
2747.71
2754.52
2761.97
2770.17
2779.2
2789.08
2799.89
2811.63
2824.3
2837.89
2852.37
2867.69
2883.78
2900.66
2918.29
2936.69
2955.82
2975.69
2996.4
3018.03
3040.63
3064.29
3089.38
3116.13
3145.25
3177.42
3213.94
3256.18
3284.62
2863.79
1581.3
981.44
915.054
912.91
911.595
910.208
908.838
907.518
906.246
905.02
903.84
902.704
901.613
900.565
899.561
898.598
897.677
896.796
895.953
895.148
894.381
893.649
892.951
892.282
891.639
891.017
890.416
889.846
889.325
888.871
888.492
888.153
887.764
887.157
885.938
883.378
878.102
867.793
849.135
818.224
771.763
708.982
633.583
554.299
482.679
428.507
395.447
380.141
375.417
375.001
375.199
375.553
375.894
376.159
376.332
376.392
376.374
376.28
376.112
375.919
375.74
375.59
375.464
375.353
375.248
375.142
375.032
374.918
374.8
374.682
374.569
374.463
374.363
374.268
374.178
2536.16
2536.64
2537.23
2538.42
2539.9
2541.71
2543.77
2546.01
2548.42
2550.98
2553.68
2556.52
2559.52
2562.69
2566.04
2569.58
2573.3
2577.21
2581.31
2585.59
2590.07
2594.7
2599.43
2604.22
2609
2613.7
2618.26
2622.62
2626.76
2630.63
2634.21
2637.49
2640.42
2643.05
2645.31
2647.27
2648.97
2650.58
2652.22
2653.82
2655.51
2657.41
2659.6
2662.16
2665.15
2668.58
2672.39
2676.5
2680.82
2685.32
2689.98
2694.79
2699.77
2704.93
2710.21
2715.58
2720.97
2726.36
2731.81
2737.39
2743.27
2749.54
2756.36
2763.82
2772.03
2781.08
2790.96
2801.79
2813.55
2826.23
2839.85
2854.35
2869.69
2885.81
2902.74
2920.45
2938.92
2958.14
2978.1
2998.96
3020.72
3043.41
3067.25
3092.55
3119.67
3149.18
3181.81
3219.29
3261.59
3281.02
2697.27
1464.74
957.131
912.516
910.764
909.447
908.062
906.703
905.395
904.137
902.927
901.764
900.647
899.576
898.551
897.569
896.63
895.733
894.876
894.059
893.279
892.537
891.83
891.157
890.514
889.896
889.299
888.723
888.177
887.681
887.252
886.897
886.58
886.211
885.62
884.412
881.844
876.527
866.131
847.319
816.191
769.49
706.528
631.116
552.06
480.878
427.199
394.541
379.52
374.947
374.541
374.75
375.186
375.641
375.99
376.21
376.304
376.305
376.239
376.094
375.913
375.739
375.59
375.465
375.354
375.249
375.143
375.032
374.918
374.8
374.682
374.569
374.463
374.363
374.268
374.178
2539.8
2540.17
2540.78
2541.9
2543.32
2545.06
2547
2549.14
2551.45
2553.91
2556.52
2559.27
2562.18
2565.26
2568.53
2571.98
2575.62
2579.44
2583.46
2587.67
2592.07
2596.62
2601.28
2606.01
2610.72
2615.36
2619.88
2624.22
2628.33
2632.18
2635.74
2639.01
2641.94
2644.57
2646.84
2648.82
2650.54
2652.15
2653.78
2655.38
2657.09
2659.03
2661.28
2663.9
2666.95
2670.41
2674.24
2678.35
2682.66
2687.14
2691.79
2696.6
2701.6
2706.8
2712.09
2717.49
2722.89
2728.29
2733.76
2739.36
2745.25
2751.52
2758.35
2765.81
2774.02
2783.07
2792.96
2803.81
2815.57
2828.26
2841.9
2856.4
2871.75
2887.93
2904.89
2922.68
2941.22
2960.5
2980.59
3001.59
3023.43
3046.26
3070.36
3095.93
3123.44
3153.34
3186.7
3225.04
3268.12
3270.09
2494.7
1348.84
937.765
910.032
908.508
907.188
905.811
904.469
903.18
901.943
900.755
899.615
898.524
897.479
896.48
895.526
894.615
893.746
892.917
892.128
891.377
890.662
889.983
889.338
888.722
888.13
887.559
887.008
886.487
886.017
885.613
885.283
884.988
884.638
884.063
882.862
880.281
874.916
864.415
845.426
814.05
767.072
703.897
628.459
549.638
478.928
425.774
393.56
378.839
374.446
374.061
374.27
374.745
375.294
375.744
376.042
376.186
376.211
376.173
376.057
375.895
375.732
375.589
375.466
375.356
375.25
375.143
375.033
374.918
374.8
374.682
374.569
374.463
374.363
374.268
374.178
2543.59
2543.87
2544.48
2545.53
2546.89
2548.53
2550.38
2552.43
2554.64
2557.01
2559.52
2562.18
2565
2567.99
2571.17
2574.53
2578.08
2581.82
2585.76
2589.9
2594.22
2598.69
2603.28
2607.93
2612.58
2617.18
2621.67
2625.98
2630.08
2633.91
2637.46
2640.72
2643.65
2646.29
2648.58
2650.57
2652.31
2653.91
2655.52
2657.13
2658.87
2660.86
2663.18
2665.86
2668.95
2672.43
2676.25
2680.34
2684.63
2689.09
2693.74
2698.57
2703.6
2708.82
2714.14
2719.55
2724.97
2730.38
2735.86
2741.47
2747.37
2753.64
2760.47
2767.92
2776.12
2785.17
2795.05
2805.9
2817.66
2830.36
2844.01
2858.5
2873.88
2890.11
2907.09
2924.95
2943.55
2962.9
2983.15
3004.22
3026.16
3049.23
3073.58
3099.46
3127.39
3157.78
3192.02
3231.36
3274.75
3244.06
2277.17
1239.86
923.188
907.582
906.191
904.867
903.506
902.187
900.923
899.712
898.552
897.441
896.378
895.363
894.395
893.471
892.59
891.751
890.953
890.194
889.472
888.786
888.135
887.517
886.928
886.362
885.817
885.29
884.794
884.348
883.97
883.662
883.388
883.055
882.493
881.296
878.696
873.273
862.65
843.458
811.801
764.508
701.089
625.61
547.033
476.827
424.231
392.512
378.109
373.9
373.554
373.766
374.262
374.871
375.41
375.799
376.022
376.094
376.079
375.997
375.86
375.713
375.581
375.465
375.357
375.251
375.145
375.033
374.918
374.8
374.682
374.569
374.463
374.363
374.268
374.178
2547.53
2547.73
2548.34
2549.31
2550.6
2552.16
2553.92
2555.87
2557.99
2560.27
2562.69
2565.26
2567.99
2570.9
2573.98
2577.25
2580.71
2584.37
2588.24
2592.29
2596.54
2600.93
2605.44
2610.03
2614.63
2619.19
2623.65
2627.93
2632.01
2635.83
2639.36
2642.63
2645.56
2648.2
2650.5
2652.52
2654.26
2655.85
2657.45
2659.07
2660.85
2662.91
2665.3
2668.03
2671.13
2674.59
2678.38
2682.43
2686.71
2691.17
2695.83
2700.68
2705.73
2710.99
2716.33
2721.76
2727.19
2732.61
2738.1
2743.72
2749.61
2755.87
2762.69
2770.12
2778.31
2787.33
2797.21
2808.06
2819.81
2832.51
2846.15
2860.63
2876.04
2892.31
2909.32
2927.25
2945.88
2965.31
2985.71
3006.82
3028.95
3052.29
3076.85
3103.2
3131.42
3162.61
3197.78
3237.97
3279.61
3195.23
2060.09
1140.57
913.4
905.165
903.848
902.525
901.186
899.895
898.66
897.479
896.349
895.27
894.239
893.255
892.318
891.426
890.577
889.769
889.001
888.271
887.577
886.92
886.297
885.705
885.141
884.601
884.079
883.576
883.103
882.68
882.324
882.038
881.782
881.465
880.913
879.716
877.09
871.596
860.835
841.413
809.439
761.795
698.1
622.565
544.243
474.571
422.576
391.396
377.343
373.314
373.014
373.236
373.749
374.398
375.002
375.471
375.784
375.934
375.956
375.912
375.804
375.678
375.562
375.457
375.356
375.252
375.146
375.035
374.919
374.8
374.682
374.569
374.462
374.363
374.268
374.178
2551.62
2551.75
2552.34
2553.24
2554.47
2555.95
2557.63
2559.49
2561.52
2563.71
2566.04
2568.53
2571.17
2573.98
2576.96
2580.14
2583.51
2587.09
2590.87
2594.86
2599.03
2603.36
2607.8
2612.33
2616.89
2621.42
2625.85
2630.11
2634.16
2637.96
2641.49
2644.75
2647.69
2650.34
2652.64
2654.66
2656.41
2658
2659.59
2661.23
2663.06
2665.18
2667.61
2670.36
2673.44
2676.85
2680.59
2684.61
2688.88
2693.36
2698.04
2702.91
2708
2713.28
2718.64
2724.1
2729.53
2734.96
2740.45
2746.06
2751.94
2758.21
2765
2772.4
2780.56
2789.55
2799.41
2810.25
2821.98
2834.69
2848.32
2862.81
2878.24
2894.51
2911.57
2929.53
2948.2
2967.73
2988.23
3009.44
3031.8
3055.39
3080.24
3107.05
3135.76
3167.78
3203.89
3245.14
3283.27
3099.44
1852.59
1055.1
907.123
902.777
901.505
900.188
898.874
897.614
896.411
895.261
894.163
893.115
892.117
891.166
890.26
889.399
888.58
887.802
887.063
886.361
885.696
885.065
884.467
883.901
883.361
882.844
882.345
881.864
881.412
881.01
880.675
880.408
880.169
879.865
879.321
878.119
875.461
869.887
858.968
839.289
806.963
758.926
694.924
619.319
541.269
472.154
420.82
390.222
376.543
372.694
372.437
372.673
373.209
373.89
374.539
375.069
375.459
375.702
375.796
375.791
375.725
375.623
375.526
375.438
375.348
375.252
375.147
375.036
374.92
374.801
374.683
374.569
374.462
374.363
374.268
374.178
2555.84
2555.91
2556.49
2557.33
2558.51
2559.92
2561.52
2563.3
2565.24
2567.33
2569.58
2571.98
2574.53
2577.25
2580.14
2583.23
2586.51
2590
2593.7
2597.61
2601.71
2605.98
2610.37
2614.85
2619.37
2623.87
2628.27
2632.5
2636.53
2640.31
2643.83
2647.09
2650.03
2652.68
2654.99
2657
2658.75
2660.34
2661.94
2663.6
2665.47
2667.63
2670.09
2672.82
2675.85
2679.19
2682.88
2686.87
2691.15
2695.64
2700.36
2705.26
2710.38
2715.68
2721.07
2726.54
2731.98
2737.4
2742.89
2748.49
2754.36
2760.62
2767.37
2774.74
2782.86
2791.8
2801.64
2812.44
2824.16
2836.87
2850.48
2865
2880.44
2896.7
2913.81
2931.8
2950.52
2970.16
2990.73
3012.12
3034.71
3058.55
3083.81
3111.04
3140.41
3173.24
3210.45
3252.92
3283.36
2930.7
1651.64
990.048
902.916
900.416
899.171
897.865
896.579
895.351
894.179
893.062
891.996
890.98
890.013
889.093
888.219
887.388
886.598
885.849
885.138
884.463
883.823
883.217
882.644
882.101
881.584
881.089
880.61
880.15
879.718
879.337
879.021
878.771
878.548
878.255
877.716
876.506
873.81
868.143
857.048
837.083
804.367
755.898
691.557
615.87
538.11
469.584
418.965
388.998
375.714
372.044
371.825
372.076
372.639
373.35
374.037
374.614
375.062
375.383
375.568
375.629
375.612
375.549
375.471
375.402
375.33
375.245
375.147
375.038
374.922
374.802
374.684
374.57
374.463
374.363
374.268
374.178
2560.22
2560.23
2560.8
2561.59
2562.72
2564.06
2565.59
2567.28
2569.13
2571.14
2573.3
2575.62
2578.08
2580.71
2583.51
2586.51
2589.7
2593.11
2596.74
2600.58
2604.62
2608.83
2613.18
2617.62
2622.11
2626.57
2630.94
2635.14
2639.13
2642.9
2646.4
2649.65
2652.59
2655.24
2657.53
2659.53
2661.27
2662.85
2664.46
2666.15
2668.03
2670.2
2672.64
2675.33
2678.3
2681.57
2685.21
2689.19
2693.49
2698.03
2702.78
2707.72
2712.87
2718.19
2723.59
2729.08
2734.51
2739.91
2745.39
2750.97
2756.83
2763.07
2769.78
2777.12
2785.18
2794.07
2803.88
2814.63
2826.34
2839.03
2852.62
2867.17
2882.6
2898.87
2916.04
2934.04
2952.86
2972.62
2993.25
3014.9
3037.7
3061.85
3087.55
3115.23
3145.43
3179.07
3217.66
3261.04
3275.79
2676.99
1458.81
946.455
899.774
898.08
896.847
895.556
894.301
893.105
891.965
890.88
889.845
888.861
887.925
887.036
886.191
885.388
884.627
883.905
883.22
882.571
881.956
881.374
880.824
880.303
879.808
879.333
878.874
878.434
878.021
877.659
877.362
877.129
876.919
876.636
876.101
874.879
872.137
866.366
855.073
834.793
801.648
752.707
687.998
612.222
534.77
466.869
417.019
387.726
374.861
371.37
371.183
371.448
372.037
372.78
373.501
374.116
374.61
374.989
375.254
375.403
375.455
375.442
375.398
375.347
375.294
375.227
375.141
375.037
374.923
374.804
374.685
374.57
374.463
374.363
374.268
374.178
2564.75
2564.71
2565.27
2566.02
2567.11
2568.38
2569.84
2571.45
2573.21
2575.13
2577.21
2579.44
2581.82
2584.37
2587.09
2590
2593.11
2596.44
2599.99
2603.77
2607.75
2611.92
2616.22
2620.63
2625.09
2629.51
2633.85
2638.01
2641.97
2645.72
2649.2
2652.44
2655.36
2657.99
2660.26
2662.23
2663.94
2665.51
2667.12
2668.81
2670.68
2672.83
2675.23
2677.87
2680.78
2684.01
2687.63
2691.61
2695.94
2700.52
2705.32
2710.3
2715.47
2720.8
2726.21
2731.69
2737.08
2742.47
2747.94
2753.49
2759.33
2765.54
2772.21
2779.51
2787.51
2796.33
2806.11
2816.79
2828.48
2841.14
2854.71
2869.29
2884.71
2901.02
2918.24
2936.28
2955.23
2975.1
2995.86
3017.83
3040.85
3065.33
3091.53
3119.71
3150.81
3185.39
3225.55
3269.36
3250.6
2373.09
1287.29
918.916
897.132
895.765
894.53
893.262
892.038
890.874
889.766
888.711
887.708
886.755
885.849
884.989
884.172
883.398
882.663
881.967
881.308
880.683
880.092
879.533
879.006
878.507
878.032
877.577
877.138
876.716
876.322
875.978
875.699
875.481
875.284
875.01
874.475
873.238
870.444
864.555
853.044
832.417
798.804
749.353
684.246
608.379
531.252
464.018
414.986
386.41
373.985
370.676
370.516
370.793
371.406
372.178
372.932
373.582
374.113
374.537
374.863
375.093
375.233
375.293
375.295
375.273
375.239
375.193
375.123
375.032
374.923
374.805
374.687
374.572
374.464
374.363
374.268
374.178
2569.44
2569.36
2569.92
2570.63
2571.66
2572.87
2574.26
2575.78
2577.47
2579.31
2581.31
2583.46
2585.76
2588.24
2590.87
2593.7
2596.74
2599.99
2603.48
2607.19
2611.12
2615.23
2619.5
2623.87
2628.29
2632.68
2636.98
2641.1
2645.03
2648.75
2652.21
2655.42
2658.31
2660.9
2663.13
2665.04
2666.7
2668.23
2669.82
2671.48
2673.32
2675.43
2677.8
2680.41
2683.29
2686.5
2690.12
2694.13
2698.51
2703.14
2707.99
2713.01
2718.2
2723.52
2728.91
2734.35
2739.71
2745.08
2750.52
2756.03
2761.83
2767.99
2774.61
2781.86
2789.79
2798.56
2808.29
2818.92
2830.59
2843.21
2856.78
2871.36
2886.79
2903.15
2920.42
2938.53
2957.66
2977.68
2998.64
3020.89
3044.18
3069.07
3095.81
3124.57
3156.68
3192.32
3233.91
3276.03
3188.72
2071.64
1144.75
903.75
894.698
893.456
892.222
890.978
889.786
888.654
887.578
886.555
885.582
884.659
883.782
882.95
882.162
881.415
880.706
880.036
879.401
878.8
878.232
877.696
877.191
876.713
876.259
875.823
875.403
874.999
874.623
874.297
874.035
873.832
873.646
873.379
872.843
871.585
868.731
862.711
850.961
829.955
795.835
745.833
680.302
604.342
527.556
461.035
412.874
385.054
373.092
369.964
369.828
370.114
370.746
371.547
372.332
373.014
373.577
374.038
374.412
374.706
374.927
375.077
375.153
375.173
375.165
375.139
375.09
375.015
374.917
374.805
374.688
374.574
374.465
374.364
374.269
374.178
2574.31
2574.17
2574.73
2575.4
2576.38
2577.53
2578.84
2580.3
2581.91
2583.67
2585.59
2587.67
2589.9
2592.29
2594.86
2597.61
2600.58
2603.77
2607.19
2610.85
2614.72
2618.79
2623.01
2627.34
2631.72
2636.06
2640.31
2644.4
2648.28
2651.97
2655.39
2658.55
2661.39
2663.93
2666.08
2667.9
2669.48
2670.95
2672.5
2674.11
2675.9
2677.98
2680.34
2682.95
2685.85
2689.07
2692.73
2696.79
2701.22
2705.9
2710.8
2715.84
2721.04
2726.32
2731.67
2737.08
2742.4
2747.74
2753.13
2758.57
2764.32
2770.41
2776.96
2784.16
2792.02
2800.74
2810.42
2820.99
2832.64
2845.23
2858.81
2873.39
2888.84
2905.29
2922.61
2940.86
2960.16
2980.35
3001.55
3024.08
3047.8
3073.08
3100.34
3129.91
3163.11
3200.05
3242.9
3279.75
3049.79
1798.88
1032.47
896.169
892.34
891.152
889.923
888.706
887.547
886.446
885.402
884.409
883.467
882.573
881.725
880.921
880.16
879.439
878.757
878.111
877.501
876.924
876.379
875.866
875.382
874.925
874.491
874.075
873.672
873.286
872.927
872.619
872.373
872.183
872.008
871.746
871.207
869.924
867.002
860.838
848.824
827.406
792.738
742.147
676.166
600.1
523.679
457.925
410.688
383.663
372.181
369.235
369.122
369.415
370.064
370.889
371.703
372.414
373.007
373.5
373.912
374.258
374.544
374.775
374.944
375.036
375.067
375.064
375.038
374.983
374.901
374.8
374.688
374.575
374.467
374.366
374.27
374.178
2579.33
2579.14
2579.68
2580.33
2581.25
2582.34
2583.59
2584.98
2586.52
2588.22
2590.07
2592.07
2594.22
2596.54
2599.03
2601.71
2604.62
2607.75
2611.12
2614.72
2618.53
2622.55
2626.72
2631
2635.33
2639.61
2643.81
2647.85
2651.69
2655.33
2658.7
2661.8
2664.57
2667
2669.05
2670.75
2672.22
2673.61
2675.08
2676.62
2678.38
2680.45
2682.84
2685.49
2688.44
2691.73
2695.45
2699.58
2704.07
2708.82
2713.75
2718.81
2723.99
2729.23
2734.54
2739.9
2745.17
2750.45
2755.77
2761.14
2766.79
2772.78
2779.25
2786.38
2794.17
2802.84
2812.45
2823
2834.63
2847.22
2860.83
2875.41
2890.94
2907.48
2924.89
2943.27
2962.74
2983.15
3004.65
3027.45
3051.61
3077.44
3105.26
3135.78
3169.99
3208.67
3252.37
3275.83
2791.91
1547.58
958.991
891.989
890.017
888.851
887.632
886.446
885.319
884.251
883.237
882.275
881.363
880.498
879.678
878.902
878.168
877.473
876.817
876.196
875.61
875.057
874.535
874.044
873.582
873.146
872.732
872.335
871.95
871.581
871.239
870.947
870.716
870.539
870.373
870.115
869.57
868.258
865.26
858.935
846.635
824.77
789.511
738.287
671.828
595.663
519.64
454.698
408.436
382.243
371.255
368.491
368.401
368.702
369.363
370.207
371.045
371.782
372.402
372.924
373.37
373.758
374.099
374.397
374.648
374.833
374.934
374.967
374.964
374.932
374.871
374.784
374.683
374.575
374.469
374.367
374.271
374.179
2584.47
2584.24
2584.76
2585.38
2586.24
2587.27
2588.46
2589.79
2591.28
2592.92
2594.7
2596.62
2598.69
2600.93
2603.36
2605.98
2608.83
2611.92
2615.23
2618.79
2622.55
2626.51
2630.63
2634.84
2639.1
2643.32
2647.45
2651.44
2655.22
2658.8
2662.09
2665.1
2667.76
2670.07
2671.97
2673.53
2674.86
2676.14
2677.54
2679.02
2680.77
2682.88
2685.32
2688.06
2691.1
2694.48
2698.28
2702.48
2707.05
2711.84
2716.81
2721.87
2727.02
2732.2
2737.46
2742.77
2747.98
2753.19
2758.4
2763.67
2769.22
2775.09
2781.47
2788.5
2796.23
2804.86
2814.42
2824.95
2836.58
2849.18
2862.84
2877.46
2893.07
2909.72
2927.27
2945.82
2965.45
2986.1
3007.9
3031.01
3055.68
3082.16
3110.64
3142.2
3177.55
3218.44
3262.24
3251.18
2438.41
1324.56
917.08
889.084
887.719
886.553
885.354
884.199
883.105
882.068
881.085
880.153
879.271
878.435
877.643
876.895
876.187
875.519
874.888
874.293
873.732
873.202
872.704
872.236
871.796
871.381
870.987
870.608
870.241
869.888
869.562
869.286
869.069
868.904
868.745
868.49
867.936
866.589
863.507
857.006
844.392
822.043
786.149
734.252
667.284
591.031
515.438
451.359
406.127
380.797
370.315
367.735
367.667
367.975
368.647
369.506
370.364
371.123
371.767
372.314
372.791
373.215
373.602
373.956
374.275
374.543
374.736
374.838
374.868
374.86
374.821
374.754
374.667
374.57
374.469
374.369
374.273
374.181
2589.7
2589.42
2589.91
2590.5
2591.31
2592.28
2593.43
2594.71
2596.15
2597.72
2599.43
2601.28
2603.28
2605.44
2607.8
2610.37
2613.18
2616.22
2619.5
2623.01
2626.72
2630.63
2634.68
2638.82
2642.99
2647.13
2651.19
2655.11
2658.83
2662.32
2665.51
2668.4
2670.92
2673.06
2674.79
2676.19
2677.37
2678.54
2679.87
2681.31
2683.09
2685.26
2687.81
2690.66
2693.82
2697.31
2701.21
2705.5
2710.12
2714.95
2719.93
2724.98
2730.1
2735.24
2740.44
2745.67
2750.79
2755.9
2761
2766.16
2771.58
2777.33
2783.61
2790.54
2798.2
2806.78
2816.29