/*--------------------------------*- C++ -*----------------------------------*\
  =========                 |
  \\      /  F ield         | OpenFOAM: The Open Source CFD Toolbox
   \\    /   O peration     | Website:  https://openfoam.org
    \\  /    A nd           | Version:  13
     \\/     M anipulation  |
\*---------------------------------------------------------------------------*/
FoamFile
{
    format      ascii;
    class       volScalarField;
    location    "0.0007";
    object      CO2;
}
// * * * * * * * * * * * * * * * * * * * * * * * * * * * * * * * * * * * * * //

dimensions      [];

internalField   nonuniform List<scalar> 
33334
(
0.00365252
0.00365252
0.00365252
0.00365252
0.00365252
0.00365252
0.00365252
0.00365252
0.00365252
0.00365252
0.00365252
0.00365252
0.00365252
0.00365252
0.00365252
0.00365252
0.00365252
0.00365252
0.00365252
0.00365252
0.00365252
0.00365252
0.00365252
0.00365252
0.00365252
0.00365252
0.00365252
0.00365252
0.00365252
0.00365252
0.00365252
0.00365252
0.00365252
0.00365252
0.00365252
0.00365252
0.00365252
0.00365252
0.00365252
0.00365252
0.00365252
0.00365252
0.00365252
0.00365252
0.00365252
0.00365252
0.00365252
0.00365252
0.00365252
0.00365252
0.0036525
0.00365231
0.00365137
0.00364858
0.00364244
0.00363146
0.00361436
0.00359031
0.0035589
0.00352015
0.00347436
0.00342212
0.00336411
0.00330112
0.00323394
0.00316335
0.00309009
0.00301483
0.00293819
0.00286072
0.0027829
0.00270514
0.0026278
0.00255117
0.00247545
0.00240079
0.00232729
0.00225498
0.00218386
0.00211392
0.00204514
0.00197748
0.00191094
0.00184549
0.00178109
0.00171771
0.00165533
0.0015939
0.00153342
0.00147384
0.00141515
0.00135732
0.00130033
0.00124415
0.00118878
0.00113421
0.00108045
0.00102745
0.000975096
0.000923256
0.00087189
0.000821206
0.000771758
0.000724263
0.000679038
0.000635162
0.000589646
0.000536991
0.000469836
0.00038242
0.000277594
0.000171466
8.57932e-05
3.27022e-05
8.68062e-06
1.40911e-06
1.17196e-07
3.99894e-09
4.36525e-11
1.90894e-13
7.32004e-14
7.28736e-14
7.21159e-14
6.93525e-14
6.34646e-14
5.50312e-14
4.56377e-14
3.65318e-14
2.814e-14
2.03979e-14
1.32177e-14
6.88086e-15
2.28759e-15
3.03016e-16
1.16006e-17
3.47519e-18
3.41374e-18
3.41277e-18
3.41276e-18
3.41276e-18
3.41276e-18
3.41276e-18
3.41276e-18
3.41276e-18
3.41276e-18
3.41276e-18
3.41276e-18
3.41276e-18
3.41276e-18
3.41276e-18
3.41276e-18
3.41276e-18
3.41276e-18
3.41276e-18
3.41276e-18
3.41276e-18
3.41276e-18
3.41276e-18
3.41276e-18
3.41276e-18
3.41276e-18
3.41276e-18
3.41276e-18
3.41276e-18
3.41276e-18
3.41276e-18
0.00365252
0.00365252
0.00365252
0.00365252
0.00365252
0.00365252
0.00365252
0.00365252
0.00365252
0.00365252
0.00365252
0.00365252
0.00365252
0.00365252
0.00365252
0.00365252
0.00365252
0.00365252
0.00365252
0.00365252
0.00365252
0.00365252
0.00365252
0.00365252
0.00365252
0.00365252
0.00365252
0.00365252
0.00365252
0.00365252
0.00365252
0.00365252
0.00365252
0.00365252
0.00365252
0.00365252
0.00365252
0.00365252
0.00365252
0.00365252
0.00365252
0.00365252
0.00365252
0.00365252
0.00365252
0.00365252
0.00365252
0.00365252
0.00365252
0.00365252
0.0036525
0.00365231
0.00365137
0.00364858
0.00364244
0.00363146
0.00361436
0.00359031
0.0035589
0.00352015
0.00347436
0.00342212
0.00336411
0.00330112
0.00323394
0.00316335
0.00309009
0.00301483
0.00293819
0.00286072
0.0027829
0.00270514
0.00262781
0.00255117
0.00247545
0.0024008
0.00232729
0.00225498
0.00218386
0.00211393
0.00204515
0.00197749
0.00191095
0.0018455
0.0017811
0.00171772
0.00165534
0.00159392
0.00153343
0.00147385
0.00141517
0.00135734
0.00130034
0.00124416
0.00118879
0.00113423
0.00108047
0.00102747
0.000975114
0.000923275
0.000871909
0.000821226
0.000771778
0.000724283
0.000679057
0.000635181
0.000589668
0.000537017
0.00046987
0.000382463
0.000277639
0.000171503
8.58162e-05
3.27126e-05
8.68377e-06
1.40969e-06
1.17251e-07
4.00115e-09
4.36805e-11
1.90979e-13
7.3199e-14
7.28722e-14
7.21147e-14
6.93516e-14
6.34642e-14
5.5031e-14
4.56376e-14
3.65317e-14
2.81399e-14
2.03979e-14
1.32176e-14
6.88085e-15
2.2876e-15
3.03021e-16
1.16009e-17
3.47519e-18
3.41374e-18
3.41277e-18
3.41276e-18
3.41276e-18
3.41276e-18
3.41276e-18
3.41276e-18
3.41276e-18
3.41276e-18
3.41276e-18
3.41276e-18
3.41276e-18
3.41276e-18
3.41276e-18
3.41276e-18
3.41276e-18
3.41276e-18
3.41276e-18
3.41276e-18
3.41276e-18
3.41276e-18
3.41276e-18
3.41276e-18
3.41276e-18
3.41276e-18
3.41276e-18
3.41276e-18
3.41276e-18
3.41276e-18
3.41276e-18
0.00365252
0.00365252
0.00365252
0.00365252
0.00365252
0.00365252
0.00365252
0.00365252
0.00365252
0.00365252
0.00365252
0.00365252
0.00365252
0.00365252
0.00365252
0.00365252
0.00365252
0.00365252
0.00365252
0.00365252
0.00365252
0.00365252
0.00365252
0.00365252
0.00365252
0.00365252
0.00365252
0.00365252
0.00365252
0.00365252
0.00365252
0.00365252
0.00365252
0.00365252
0.00365252
0.00365252
0.00365252
0.00365252
0.00365252
0.00365252
0.00365252
0.00365252
0.00365252
0.00365252
0.00365252
0.00365252
0.00365252
0.00365252
0.00365252
0.00365252
0.0036525
0.00365231
0.00365137
0.00364858
0.00364244
0.00363146
0.00361436
0.00359031
0.0035589
0.00352015
0.00347436
0.00342212
0.00336411
0.00330112
0.00323394
0.00316335
0.00309009
0.00301483
0.00293819
0.00286072
0.0027829
0.00270514
0.00262781
0.00255117
0.00247545
0.0024008
0.0023273
0.00225498
0.00218387
0.00211393
0.00204515
0.00197749
0.00191096
0.0018455
0.00178111
0.00171773
0.00165535
0.00159392
0.00153344
0.00147387
0.00141518
0.00135735
0.00130036
0.00124418
0.00118881
0.00113424
0.00108049
0.00102748
0.000975131
0.000923293
0.000871928
0.000821245
0.000771797
0.000724302
0.000679075
0.0006352
0.00058969
0.000537046
0.000469909
0.000382512
0.000277692
0.00017155
8.58468e-05
3.27271e-05
8.68839e-06
1.41057e-06
1.17334e-07
4.00435e-09
4.37196e-11
1.91095e-13
7.31966e-14
7.28698e-14
7.21124e-14
6.93499e-14
6.3463e-14
5.50302e-14
4.5637e-14
3.65313e-14
2.81396e-14
2.03977e-14
1.32176e-14
6.88083e-15
2.28761e-15
3.03026e-16
1.16011e-17
3.47519e-18
3.41374e-18
3.41277e-18
3.41276e-18
3.41276e-18
3.41276e-18
3.41276e-18
3.41276e-18
3.41276e-18
3.41276e-18
3.41276e-18
3.41276e-18
3.41276e-18
3.41276e-18
3.41276e-18
3.41276e-18
3.41276e-18
3.41276e-18
3.41276e-18
3.41276e-18
3.41276e-18
3.41276e-18
3.41276e-18
3.41276e-18
3.41276e-18
3.41276e-18
3.41276e-18
3.41276e-18
3.41276e-18
3.41276e-18
3.41276e-18
0.00365252
0.00365252
0.00365252
0.00365252
0.00365252
0.00365252
0.00365252
0.00365252
0.00365252
0.00365252
0.00365252
0.00365252
0.00365252
0.00365252
0.00365252
0.00365252
0.00365252
0.00365252
0.00365252
0.00365252
0.00365252
0.00365252
0.00365252
0.00365252
0.00365252
0.00365252
0.00365252
0.00365252
0.00365252
0.00365252
0.00365252
0.00365252
0.00365252
0.00365252
0.00365252
0.00365252
0.00365252
0.00365252
0.00365252
0.00365252
0.00365252
0.00365252
0.00365252
0.00365252
0.00365252
0.00365252
0.00365252
0.00365252
0.00365252
0.00365252
0.0036525
0.00365231
0.00365137
0.00364858
0.00364244
0.00363146
0.00361436
0.00359031
0.0035589
0.00352014
0.00347436
0.00342212
0.00336411
0.00330112
0.00323394
0.00316335
0.00309009
0.00301483
0.00293819
0.00286072
0.0027829
0.00270514
0.00262781
0.00255117
0.00247545
0.0024008
0.0023273
0.00225498
0.00218387
0.00211393
0.00204515
0.0019775
0.00191096
0.00184551
0.00178111
0.00171773
0.00165535
0.00159393
0.00153344
0.00147387
0.00141518
0.00135735
0.00130036
0.00124418
0.00118881
0.00113425
0.00108049
0.00102749
0.000975138
0.000923301
0.000871936
0.000821254
0.000771806
0.00072431
0.000679084
0.000635208
0.0005897
0.000537059
0.000469928
0.000382538
0.000277722
0.000171576
8.58652e-05
3.27363e-05
8.69146e-06
1.41117e-06
1.17394e-07
4.00668e-09
4.37483e-11
1.9118e-13
7.31948e-14
7.2868e-14
7.21108e-14
6.93486e-14
6.3462e-14
5.50296e-14
4.56366e-14
3.6531e-14
2.81394e-14
2.03976e-14
1.32175e-14
6.88085e-15
2.28763e-15
3.03032e-16
1.16014e-17
3.4752e-18
3.41374e-18
3.41277e-18
3.41276e-18
3.41276e-18
3.41276e-18
3.41276e-18
3.41276e-18
3.41276e-18
3.41276e-18
3.41276e-18
3.41276e-18
3.41276e-18
3.41276e-18
3.41276e-18
3.41276e-18
3.41276e-18
3.41276e-18
3.41276e-18
3.41276e-18
3.41276e-18
3.41276e-18
3.41276e-18
3.41276e-18
3.41276e-18
3.41276e-18
3.41276e-18
3.41276e-18
3.41276e-18
3.41276e-18
3.41276e-18
0.00365252
0.00365252
0.00365252
0.00365252
0.00365252
0.00365252
0.00365252
0.00365252
0.00365252
0.00365252
0.00365252
0.00365252
0.00365252
0.00365252
0.00365252
0.00365252
0.00365252
0.00365252
0.00365252
0.00365252
0.00365252
0.00365252
0.00365252
0.00365252
0.00365252
0.00365252
0.00365252
0.00365252
0.00365252
0.00365252
0.00365252
0.00365252
0.00365252
0.00365252
0.00365252
0.00365252
0.00365252
0.00365252
0.00365252
0.00365252
0.00365252
0.00365252
0.00365252
0.00365252
0.00365252
0.00365252
0.00365252
0.00365252
0.00365252
0.00365252
0.0036525
0.00365231
0.00365137
0.00364858
0.00364244
0.00363146
0.00361436
0.00359031
0.0035589
0.00352014
0.00347436
0.00342212
0.00336411
0.00330112
0.00323394
0.00316335
0.00309009
0.00301483
0.00293819
0.00286072
0.0027829
0.00270514
0.00262781
0.00255117
0.00247545
0.0024008
0.0023273
0.00225498
0.00218387
0.00211393
0.00204515
0.0019775
0.00191096
0.00184551
0.00178111
0.00171773
0.00165535
0.00159393
0.00153344
0.00147387
0.00141518
0.00135736
0.00130036
0.00124418
0.00118881
0.00113425
0.00108049
0.00102749
0.00097514
0.000923302
0.000871938
0.000821256
0.000771807
0.000724312
0.000679085
0.00063521
0.000589702
0.000537062
0.000469933
0.000382545
0.00027773
0.000171585
8.5871e-05
3.27393e-05
8.69254e-06
1.4114e-06
1.17418e-07
4.00769e-09
4.37617e-11
1.91222e-13
7.31943e-14
7.28674e-14
7.21102e-14
6.93482e-14
6.34618e-14
5.50295e-14
4.56365e-14
3.6531e-14
2.81395e-14
2.03976e-14
1.32176e-14
6.88089e-15
2.28766e-15
3.03037e-16
1.16016e-17
3.4752e-18
3.41374e-18
3.41277e-18
3.41276e-18
3.41276e-18
3.41276e-18
3.41276e-18
3.41276e-18
3.41276e-18
3.41276e-18
3.41276e-18
3.41276e-18
3.41276e-18
3.41276e-18
3.41276e-18
3.41276e-18
3.41276e-18
3.41276e-18
3.41276e-18
3.41276e-18
3.41276e-18
3.41276e-18
3.41276e-18
3.41276e-18
3.41276e-18
3.41276e-18
3.41276e-18
3.41276e-18
3.41276e-18
3.41276e-18
3.41276e-18
0.00365252
0.00365252
0.00365252
0.00365252
0.00365252
0.00365252
0.00365252
0.00365252
0.00365252
0.00365252
0.00365252
0.00365252
0.00365252
0.00365252
0.00365252
0.00365252
0.00365252
0.00365252
0.00365252
0.00365252
0.00365252
0.00365252
0.00365252
0.00365252
0.00365252
0.00365252
0.00365252
0.00365252
0.00365252
0.00365252
0.00365252
0.00365252
0.00365252
0.00365252
0.00365252
0.00365252
0.00365252
0.00365252
0.00365252
0.00365252
0.00365252
0.00365252
0.00365252
0.00365252
0.00365252
0.00365252
0.00365252
0.00365252
0.00365252
0.00365252
0.0036525
0.00365231
0.00365137
0.00364858
0.00364244
0.00363146
0.00361436
0.00359031
0.0035589
0.00352014
0.00347436
0.00342212
0.00336411
0.00330112
0.00323394
0.00316335
0.00309009
0.00301483
0.00293819
0.00286072
0.0027829
0.00270514
0.00262781
0.00255117
0.00247545
0.0024008
0.0023273
0.00225498
0.00218387
0.00211393
0.00204515
0.0019775
0.00191096
0.00184551
0.00178111
0.00171773
0.00165535
0.00159393
0.00153344
0.00147387
0.00141518
0.00135736
0.00130036
0.00124418
0.00118881
0.00113425
0.00108049
0.00102749
0.00097514
0.000923302
0.000871938
0.000821256
0.000771807
0.000724312
0.000679085
0.00063521
0.000589702
0.000537062
0.000469933
0.000382545
0.000277731
0.000171585
8.58718e-05
3.27398e-05
8.69274e-06
1.41145e-06
1.17423e-07
4.00797e-09
4.37659e-11
1.91237e-13
7.31942e-14
7.28674e-14
7.21102e-14
6.93482e-14
6.34618e-14
5.50295e-14
4.56366e-14
3.65311e-14
2.81396e-14
2.03977e-14
1.32177e-14
6.88094e-15
2.28768e-15
3.03042e-16
1.16019e-17
3.4752e-18
3.41374e-18
3.41277e-18
3.41276e-18
3.41276e-18
3.41276e-18
3.41276e-18
3.41276e-18
3.41276e-18
3.41276e-18
3.41276e-18
3.41276e-18
3.41276e-18
3.41276e-18
3.41276e-18
3.41276e-18
3.41276e-18
3.41276e-18
3.41276e-18
3.41276e-18
3.41276e-18
3.41276e-18
3.41276e-18
3.41276e-18
3.41276e-18
3.41276e-18
3.41276e-18
3.41276e-18
3.41276e-18
3.41276e-18
3.41276e-18
0.00365252
0.00365252
0.00365252
0.00365252
0.00365252
0.00365252
0.00365252
0.00365252
0.00365252
0.00365252
0.00365252
0.00365252
0.00365252
0.00365252
0.00365252
0.00365252
0.00365252
0.00365252
0.00365252
0.00365252
0.00365252
0.00365252
0.00365252
0.00365252
0.00365252
0.00365252
0.00365252
0.00365252
0.00365252
0.00365252
0.00365252
0.00365252
0.00365252
0.00365252
0.00365252
0.00365252
0.00365252
0.00365252
0.00365252
0.00365252
0.00365252
0.00365252
0.00365252
0.00365252
0.00365252
0.00365252
0.00365252
0.00365252
0.00365252
0.00365252
0.0036525
0.00365231
0.00365137
0.00364858
0.00364244
0.00363146
0.00361436
0.00359031
0.0035589
0.00352014
0.00347436
0.00342212
0.00336411
0.00330112
0.00323394
0.00316335
0.00309009
0.00301483
0.00293819
0.00286072
0.0027829
0.00270514
0.0026278
0.00255117
0.00247545
0.0024008
0.0023273
0.00225498
0.00218387
0.00211393
0.00204515
0.00197749
0.00191096
0.0018455
0.00178111
0.00171773
0.00165535
0.00159393
0.00153344
0.00147387
0.00141518
0.00135735
0.00130036
0.00124418
0.00118881
0.00113425
0.00108049
0.00102749
0.000975139
0.000923302
0.000871937
0.000821255
0.000771807
0.000724312
0.000679085
0.00063521
0.000589701
0.000537062
0.000469932
0.000382544
0.00027773
0.000171585
8.58713e-05
3.27396e-05
8.6927e-06
1.41145e-06
1.17424e-07
4.00803e-09
4.37669e-11
1.91241e-13
7.31944e-14
7.28675e-14
7.21104e-14
6.93483e-14
6.3462e-14
5.50297e-14
4.56368e-14
3.65313e-14
2.81397e-14
2.03978e-14
1.32177e-14
6.88098e-15
2.2877e-15
3.03047e-16
1.16021e-17
3.4752e-18
3.41374e-18
3.41277e-18
3.41276e-18
3.41276e-18
3.41276e-18
3.41276e-18
3.41276e-18
3.41276e-18
3.41276e-18
3.41276e-18
3.41276e-18
3.41276e-18
3.41276e-18
3.41276e-18
3.41276e-18
3.41276e-18
3.41276e-18
3.41276e-18
3.41276e-18
3.41276e-18
3.41276e-18
3.41276e-18
3.41276e-18
3.41276e-18
3.41276e-18
3.41276e-18
3.41276e-18
3.41276e-18
3.41276e-18
3.41276e-18
0.00365252
0.00365252
0.00365252
0.00365252
0.00365252
0.00365252
0.00365252
0.00365252
0.00365252
0.00365252
0.00365252
0.00365252
0.00365252
0.00365252
0.00365252
0.00365252
0.00365252
0.00365252
0.00365252
0.00365252
0.00365252
0.00365252
0.00365252
0.00365252
0.00365252
0.00365252
0.00365252
0.00365252
0.00365252
0.00365252
0.00365252
0.00365252
0.00365252
0.00365252
0.00365252
0.00365252
0.00365252
0.00365252
0.00365252
0.00365252
0.00365252
0.00365252
0.00365252
0.00365252
0.00365252
0.00365252
0.00365252
0.00365252
0.00365252
0.00365252
0.0036525
0.00365231
0.00365137
0.00364858
0.00364244
0.00363146
0.00361436
0.00359031
0.0035589
0.00352014
0.00347436
0.00342212
0.00336411
0.00330112
0.00323394
0.00316335
0.00309009
0.00301483
0.00293819
0.00286072
0.0027829
0.00270514
0.0026278
0.00255117
0.00247545
0.0024008
0.00232729
0.00225498
0.00218387
0.00211393
0.00204515
0.00197749
0.00191096
0.0018455
0.00178111
0.00171773
0.00165535
0.00159393
0.00153344
0.00147387
0.00141518
0.00135735
0.00130036
0.00124418
0.00118881
0.00113425
0.00108049
0.00102749
0.000975139
0.000923301
0.000871937
0.000821255
0.000771807
0.000724311
0.000679084
0.000635209
0.000589701
0.000537061
0.000469931
0.000382543
0.000277728
0.000171583
8.58702e-05
3.27392e-05
8.69257e-06
1.41143e-06
1.17423e-07
4.00802e-09
4.37672e-11
1.91243e-13
7.31947e-14
7.28678e-14
7.21107e-14
6.93486e-14
6.34623e-14
5.503e-14
4.5637e-14
3.65315e-14
2.81398e-14
2.03979e-14
1.32178e-14
6.88102e-15
2.28772e-15
3.03052e-16
1.16023e-17
3.4752e-18
3.41374e-18
3.41277e-18
3.41276e-18
3.41276e-18
3.41276e-18
3.41276e-18
3.41276e-18
3.41276e-18
3.41276e-18
3.41276e-18
3.41276e-18
3.41276e-18
3.41276e-18
3.41276e-18
3.41276e-18
3.41276e-18
3.41276e-18
3.41276e-18
3.41276e-18
3.41276e-18
3.41276e-18
3.41276e-18
3.41276e-18
3.41276e-18
3.41276e-18
3.41276e-18
3.41276e-18
3.41276e-18
3.41276e-18
3.41276e-18
0.00365252
0.00365252
0.00365252
0.00365252
0.00365252
0.00365252
0.00365252
0.00365252
0.00365252
0.00365252
0.00365252
0.00365252
0.00365252
0.00365252
0.00365252
0.00365252
0.00365252
0.00365252
0.00365252
0.00365252
0.00365252
0.00365252
0.00365252
0.00365252
0.00365252
0.00365252
0.00365252
0.00365252
0.00365252
0.00365252
0.00365252
0.00365252
0.00365252
0.00365252
0.00365252
0.00365252
0.00365252
0.00365252
0.00365252
0.00365252
0.00365252
0.00365252
0.00365252
0.00365252
0.00365252
0.00365252
0.00365252
0.00365252
0.00365252
0.00365252
0.0036525
0.00365231
0.00365137
0.00364858
0.00364244
0.00363146
0.00361436
0.00359031
0.0035589
0.00352014
0.00347436
0.00342212
0.00336411
0.00330112
0.00323394
0.00316335
0.00309009
0.00301483
0.00293819
0.00286072
0.0027829
0.00270514
0.0026278
0.00255117
0.00247545
0.0024008
0.00232729
0.00225498
0.00218387
0.00211393
0.00204515
0.00197749
0.00191096
0.0018455
0.00178111
0.00171773
0.00165535
0.00159393
0.00153344
0.00147387
0.00141518
0.00135735
0.00130036
0.00124418
0.00118881
0.00113425
0.00108049
0.00102749
0.000975139
0.000923301
0.000871937
0.000821255
0.000771806
0.000724311
0.000679084
0.000635208
0.0005897
0.00053706
0.000469929
0.000382541
0.000277726
0.000171581
8.58689e-05
3.27386e-05
8.6924e-06
1.4114e-06
1.17421e-07
4.00797e-09
4.3767e-11
1.91244e-13
7.3195e-14
7.28682e-14
7.2111e-14
6.9349e-14
6.34626e-14
5.50303e-14
4.56372e-14
3.65316e-14
2.81399e-14
2.0398e-14
1.32178e-14
6.88106e-15
2.28774e-15
3.03056e-16
1.16025e-17
3.4752e-18
3.41374e-18
3.41277e-18
3.41276e-18
3.41276e-18
3.41276e-18
3.41276e-18
3.41276e-18
3.41276e-18
3.41276e-18
3.41276e-18
3.41276e-18
3.41276e-18
3.41276e-18
3.41276e-18
3.41276e-18
3.41276e-18
3.41276e-18
3.41276e-18
3.41276e-18
3.41276e-18
3.41276e-18
3.41276e-18
3.41276e-18
3.41276e-18
3.41276e-18
3.41276e-18
3.41276e-18
3.41276e-18
3.41276e-18
3.41276e-18
0.00365252
0.00365252
0.00365252
0.00365252
0.00365252
0.00365252
0.00365252
0.00365252
0.00365252
0.00365252
0.00365252
0.00365252
0.00365252
0.00365252
0.00365252
0.00365252
0.00365252
0.00365252
0.00365252
0.00365252
0.00365252
0.00365252
0.00365252
0.00365252
0.00365252
0.00365252
0.00365252
0.00365252
0.00365252
0.00365252
0.00365252
0.00365252
0.00365252
0.00365252
0.00365252
0.00365252
0.00365252
0.00365252
0.00365252
0.00365252
0.00365252
0.00365252
0.00365252
0.00365252
0.00365252
0.00365252
0.00365252
0.00365252
0.00365252
0.00365252
0.0036525
0.00365231
0.00365137
0.00364858
0.00364244
0.00363146
0.00361436
0.00359031
0.0035589
0.00352014
0.00347436
0.00342212
0.00336411
0.00330112
0.00323394
0.00316335
0.00309009
0.00301483
0.00293819
0.00286072
0.0027829
0.00270514
0.0026278
0.00255117
0.00247545
0.0024008
0.00232729
0.00225498
0.00218387
0.00211393
0.00204515
0.00197749
0.00191096
0.0018455
0.00178111
0.00171773
0.00165535
0.00159393
0.00153344
0.00147387
0.00141518
0.00135735
0.00130036
0.00124418
0.00118881
0.00113425
0.00108049
0.00102749
0.000975138
0.000923301
0.000871936
0.000821254
0.000771806
0.00072431
0.000679083
0.000635208
0.000589699
0.000537059
0.000469928
0.000382539
0.000277724
0.000171579
8.58679e-05
3.27381e-05
8.69225e-06
1.41138e-06
1.17419e-07
4.00791e-09
4.37665e-11
1.91244e-13
7.31954e-14
7.28685e-14
7.21114e-14
6.93493e-14
6.34629e-14
5.50306e-14
4.56375e-14
3.65318e-14
2.81401e-14
2.03981e-14
1.32179e-14
6.88111e-15
2.28777e-15
3.03061e-16
1.16026e-17
3.4752e-18
3.41374e-18
3.41277e-18
3.41276e-18
3.41276e-18
3.41276e-18
3.41276e-18
3.41276e-18
3.41276e-18
3.41276e-18
3.41276e-18
3.41276e-18
3.41276e-18
3.41276e-18
3.41276e-18
3.41276e-18
3.41276e-18
3.41276e-18
3.41276e-18
3.41276e-18
3.41276e-18
3.41276e-18
3.41276e-18
3.41276e-18
3.41276e-18
3.41276e-18
3.41276e-18
3.41276e-18
3.41276e-18
3.41276e-18
3.41276e-18
0.00365252
0.00365252
0.00365252
0.00365252
0.00365252
0.00365252
0.00365252
0.00365252
0.00365252
0.00365252
0.00365252
0.00365252
0.00365252
0.00365252
0.00365252
0.00365252
0.00365252
0.00365252
0.00365252
0.00365252
0.00365252
0.00365252
0.00365252
0.00365252
0.00365252
0.00365252
0.00365252
0.00365252
0.00365252
0.00365252
0.00365252
0.00365252
0.00365252
0.00365252
0.00365252
0.00365252
0.00365252
0.00365252
0.00365252
0.00365252
0.00365252
0.00365252
0.00365252
0.00365252
0.00365252
0.00365252
0.00365252
0.00365252
0.00365252
0.00365252
0.0036525
0.00365231
0.00365137
0.00364858
0.00364244
0.00363146
0.00361436
0.00359031
0.0035589
0.00352014
0.00347436
0.00342211
0.00336411
0.00330112
0.00323394
0.00316335
0.00309009
0.00301483
0.00293819
0.00286072
0.0027829
0.00270514
0.0026278
0.00255117
0.00247545
0.0024008
0.00232729
0.00225498
0.00218387
0.00211393
0.00204515
0.00197749
0.00191095
0.0018455
0.00178111
0.00171773
0.00165535
0.00159393
0.00153344
0.00147387
0.00141518
0.00135735
0.00130036
0.00124418
0.00118881
0.00113425
0.00108049
0.00102749
0.000975138
0.0009233
0.000871936
0.000821254
0.000771806
0.00072431
0.000679083
0.000635208
0.000589699
0.000537058
0.000469927
0.000382538
0.000277723
0.000171578
8.58672e-05
3.27378e-05
8.69216e-06
1.41136e-06
1.17417e-07
4.00786e-09
4.3766e-11
1.91243e-13
7.31957e-14
7.28688e-14
7.21117e-14
6.93496e-14
6.34632e-14
5.50308e-14
4.56377e-14
3.6532e-14
2.81402e-14
2.03982e-14
1.3218e-14
6.88115e-15
2.28779e-15
3.03065e-16
1.16028e-17
3.47521e-18
3.41374e-18
3.41277e-18
3.41276e-18
3.41276e-18
3.41276e-18
3.41276e-18
3.41276e-18
3.41276e-18
3.41276e-18
3.41276e-18
3.41276e-18
3.41276e-18
3.41276e-18
3.41276e-18
3.41276e-18
3.41276e-18
3.41276e-18
3.41276e-18
3.41276e-18
3.41276e-18
3.41276e-18
3.41276e-18
3.41276e-18
3.41276e-18
3.41276e-18
3.41276e-18
3.41276e-18
3.41276e-18
3.41276e-18
3.41276e-18
0.00365252
0.00365252
0.00365252
0.00365252
0.00365252
0.00365252
0.00365252
0.00365252
0.00365252
0.00365252
0.00365252
0.00365252
0.00365252
0.00365252
0.00365252
0.00365252
0.00365252
0.00365252
0.00365252
0.00365252
0.00365252
0.00365252
0.00365252
0.00365252
0.00365252
0.00365252
0.00365252
0.00365252
0.00365252
0.00365252
0.00365252
0.00365252
0.00365252
0.00365252
0.00365252
0.00365252
0.00365252
0.00365252
0.00365252
0.00365252
0.00365252
0.00365252
0.00365252
0.00365252
0.00365252
0.00365252
0.00365252
0.00365252
0.00365252
0.00365252
0.0036525
0.00365231
0.00365137
0.00364858
0.00364244
0.00363146
0.00361436
0.00359031
0.0035589
0.00352014
0.00347436
0.00342211
0.00336411
0.00330112
0.00323394
0.00316335
0.00309009
0.00301483
0.00293819
0.00286072
0.0027829
0.00270514
0.0026278
0.00255117
0.00247545
0.0024008
0.00232729
0.00225498
0.00218387
0.00211393
0.00204515
0.00197749
0.00191095
0.0018455
0.00178111
0.00171773
0.00165535
0.00159393
0.00153344
0.00147387
0.00141518
0.00135735
0.00130036
0.00124418
0.00118881
0.00113425
0.00108049
0.00102749
0.000975138
0.0009233
0.000871936
0.000821254
0.000771805
0.00072431
0.000679083
0.000635207
0.000589699
0.000537058
0.000469927
0.000382537
0.000277722
0.000171578
8.58668e-05
3.27376e-05
8.69209e-06
1.41135e-06
1.17417e-07
4.00783e-09
4.37656e-11
1.91242e-13
7.31959e-14
7.28691e-14
7.21119e-14
6.93499e-14
6.34635e-14
5.5031e-14
4.56379e-14
3.65321e-14
2.81403e-14
2.03983e-14
1.32181e-14
6.8812e-15
2.28781e-15
3.03069e-16
1.1603e-17
3.47521e-18
3.41374e-18
3.41277e-18
3.41276e-18
3.41276e-18
3.41276e-18
3.41276e-18
3.41276e-18
3.41276e-18
3.41276e-18
3.41276e-18
3.41276e-18
3.41276e-18
3.41276e-18
3.41276e-18
3.41276e-18
3.41276e-18
3.41276e-18
3.41276e-18
3.41276e-18
3.41276e-18
3.41276e-18
3.41276e-18
3.41276e-18
3.41276e-18
3.41276e-18
3.41276e-18
3.41276e-18
3.41276e-18
3.41276e-18
3.41276e-18
0.00365252
0.00365252
0.00365252
0.00365252
0.00365252
0.00365252
0.00365252
0.00365252
0.00365252
0.00365252
0.00365252
0.00365252
0.00365252
0.00365252
0.00365252
0.00365252
0.00365252
0.00365252
0.00365252
0.00365252
0.00365252
0.00365252
0.00365252
0.00365252
0.00365252
0.00365252
0.00365252
0.00365252
0.00365252
0.00365252
0.00365252
0.00365252
0.00365252
0.00365252
0.00365252
0.00365252
0.00365252
0.00365252
0.00365252
0.00365252
0.00365252
0.00365252
0.00365252
0.00365252
0.00365252
0.00365252
0.00365252
0.00365252
0.00365252
0.00365252
0.0036525
0.00365231
0.00365137
0.00364858
0.00364244
0.00363146
0.00361436
0.00359031
0.0035589
0.00352014
0.00347436
0.00342211
0.00336411
0.00330112
0.00323394
0.00316335
0.00309008
0.00301483
0.00293819
0.00286072
0.00278289
0.00270514
0.0026278
0.00255117
0.00247545
0.0024008
0.00232729
0.00225498
0.00218387
0.00211393
0.00204515
0.00197749
0.00191095
0.0018455
0.0017811
0.00171773
0.00165535
0.00159393
0.00153344
0.00147387
0.00141518
0.00135735
0.00130036
0.00124418
0.00118881
0.00113425
0.00108049
0.00102749
0.000975138
0.0009233
0.000871935
0.000821253
0.000771805
0.000724309
0.000679082
0.000635207
0.000589698
0.000537058
0.000469926
0.000382537
0.000277721
0.000171577
8.58665e-05
3.27374e-05
8.69205e-06
1.41134e-06
1.17416e-07
4.0078e-09
4.37654e-11
1.91242e-13
7.31962e-14
7.28693e-14
7.21122e-14
6.93502e-14
6.34637e-14
5.50313e-14
4.56381e-14
3.65323e-14
2.81405e-14
2.03984e-14
1.32181e-14
6.88124e-15
2.28783e-15
3.03072e-16
1.16031e-17
3.47521e-18
3.41374e-18
3.41277e-18
3.41276e-18
3.41276e-18
3.41276e-18
3.41276e-18
3.41276e-18
3.41276e-18
3.41276e-18
3.41276e-18
3.41276e-18
3.41276e-18
3.41276e-18
3.41276e-18
3.41276e-18
3.41276e-18
3.41276e-18
3.41276e-18
3.41276e-18
3.41276e-18
3.41276e-18
3.41276e-18
3.41276e-18
3.41276e-18
3.41276e-18
3.41276e-18
3.41276e-18
3.41276e-18
3.41276e-18
3.41276e-18
0.00365252
0.00365252
0.00365252
0.00365252
0.00365252
0.00365252
0.00365252
0.00365252
0.00365252
0.00365252
0.00365252
0.00365252
0.00365252
0.00365252
0.00365252
0.00365252
0.00365252
0.00365252
0.00365252
0.00365252
0.00365252
0.00365252
0.00365252
0.00365252
0.00365252
0.00365252
0.00365252
0.00365252
0.00365252
0.00365252
0.00365252
0.00365252
0.00365252
0.00365252
0.00365252
0.00365252
0.00365252
0.00365252
0.00365252
0.00365252
0.00365252
0.00365252
0.00365252
0.00365252
0.00365252
0.00365252
0.00365252
0.00365252
0.00365252
0.00365252
0.0036525
0.00365231
0.00365137
0.00364858
0.00364244
0.00363146
0.00361436
0.00359031
0.0035589
0.00352014
0.00347436
0.00342211
0.00336411
0.00330112
0.00323394
0.00316335
0.00309008
0.00301483
0.00293819
0.00286072
0.00278289
0.00270514
0.0026278
0.00255117
0.00247545
0.00240079
0.00232729
0.00225498
0.00218386
0.00211393
0.00204515
0.00197749
0.00191095
0.0018455
0.0017811
0.00171773
0.00165535
0.00159393
0.00153344
0.00147387
0.00141518
0.00135735
0.00130036
0.00124418
0.00118881
0.00113425
0.00108049
0.00102749
0.000975137
0.0009233
0.000871935
0.000821253
0.000771805
0.000724309
0.000679082
0.000635207
0.000589698
0.000537057
0.000469926
0.000382536
0.000277721
0.000171577
8.58662e-05
3.27373e-05
8.69201e-06
1.41133e-06
1.17415e-07
4.00778e-09
4.37652e-11
1.91242e-13
7.31964e-14
7.28696e-14
7.21125e-14
6.93504e-14
6.3464e-14
5.50315e-14
4.56382e-14
3.65324e-14
2.81406e-14
2.03985e-14
1.32182e-14
6.88129e-15
2.28784e-15
3.03076e-16
1.16032e-17
3.47521e-18
3.41374e-18
3.41277e-18
3.41276e-18
3.41276e-18
3.41276e-18
3.41276e-18
3.41276e-18
3.41276e-18
3.41276e-18
3.41276e-18
3.41276e-18
3.41276e-18
3.41276e-18
3.41276e-18
3.41276e-18
3.41276e-18
3.41276e-18
3.41276e-18
3.41276e-18
3.41276e-18
3.41276e-18
3.41276e-18
3.41276e-18
3.41276e-18
3.41276e-18
3.41276e-18
3.41276e-18
3.41276e-18
3.41276e-18
3.41276e-18
0.00365252
0.00365252
0.00365252
0.00365252
0.00365252
0.00365252
0.00365252
0.00365252
0.00365252
0.00365252
0.00365252
0.00365252
0.00365252
0.00365252
0.00365252
0.00365252
0.00365252
0.00365252
0.00365252
0.00365252
0.00365252
0.00365252
0.00365252
0.00365252
0.00365252
0.00365252
0.00365252
0.00365252
0.00365252
0.00365252
0.00365252
0.00365252
0.00365252
0.00365252
0.00365252
0.00365252
0.00365252
0.00365252
0.00365252
0.00365252
0.00365252
0.00365252
0.00365252
0.00365252
0.00365252
0.00365252
0.00365252
0.00365252
0.00365252
0.00365252
0.0036525
0.00365231
0.00365137
0.00364858
0.00364244
0.00363146
0.00361436
0.00359031
0.0035589
0.00352014
0.00347436
0.00342211
0.00336411
0.00330112
0.00323394
0.00316335
0.00309008
0.00301483
0.00293819
0.00286072
0.00278289
0.00270514
0.0026278
0.00255117
0.00247545
0.00240079
0.00232729
0.00225498
0.00218386
0.00211393
0.00204515
0.00197749
0.00191095
0.0018455
0.0017811
0.00171773
0.00165535
0.00159393
0.00153344
0.00147387
0.00141518
0.00135735
0.00130036
0.00124418
0.00118881
0.00113425
0.00108049
0.00102749
0.000975137
0.0009233
0.000871935
0.000821253
0.000771805
0.000724309
0.000679082
0.000635207
0.000589698
0.000537057
0.000469926
0.000382536
0.00027772
0.000171576
8.5866e-05
3.27372e-05
8.69198e-06
1.41133e-06
1.17415e-07
4.00776e-09
4.3765e-11
1.91241e-13
7.31966e-14
7.28698e-14
7.21127e-14
6.93506e-14
6.34642e-14
5.50317e-14
4.56384e-14
3.65326e-14
2.81407e-14
2.03986e-14
1.32183e-14
6.88133e-15
2.28786e-15
3.03079e-16
1.16033e-17
3.47521e-18
3.41374e-18
3.41277e-18
3.41276e-18
3.41276e-18
3.41276e-18
3.41276e-18
3.41276e-18
3.41276e-18
3.41276e-18
3.41276e-18
3.41276e-18
3.41276e-18
3.41276e-18
3.41276e-18
3.41276e-18
3.41276e-18
3.41276e-18
3.41276e-18
3.41276e-18
3.41276e-18
3.41276e-18
3.41276e-18
3.41276e-18
3.41276e-18
3.41276e-18
3.41276e-18
3.41276e-18
3.41276e-18
3.41276e-18
3.41276e-18
0.00365252
0.00365252
0.00365252
0.00365252
0.00365252
0.00365252
0.00365252
0.00365252
0.00365252
0.00365252
0.00365252
0.00365252
0.00365252
0.00365252
0.00365252
0.00365252
0.00365252
0.00365252
0.00365252
0.00365252
0.00365252
0.00365252
0.00365252
0.00365252
0.00365252
0.00365252
0.00365252
0.00365252
0.00365252
0.00365252
0.00365252
0.00365252
0.00365252
0.00365252
0.00365252
0.00365252
0.00365252
0.00365252
0.00365252
0.00365252
0.00365252
0.00365252
0.00365252
0.00365252
0.00365252
0.00365252
0.00365252
0.00365252
0.00365252
0.00365252
0.0036525
0.00365231
0.00365137
0.00364858
0.00364244
0.00363146
0.00361436
0.00359031
0.0035589
0.00352014
0.00347436
0.00342211
0.00336411
0.00330112
0.00323394
0.00316335
0.00309008
0.00301483
0.00293819
0.00286072
0.00278289
0.00270514
0.0026278
0.00255117
0.00247545
0.00240079
0.00232729
0.00225498
0.00218386
0.00211393
0.00204515
0.00197749
0.00191095
0.0018455
0.0017811
0.00171773
0.00165535
0.00159393
0.00153344
0.00147387
0.00141518
0.00135735
0.00130036
0.00124418
0.00118881
0.00113425
0.00108049
0.00102749
0.000975137
0.000923299