/*--------------------------------*- C++ -*----------------------------------*\
  =========                 |
  \\      /  F ield         | OpenFOAM: The Open Source CFD Toolbox
   \\    /   O peration     | Website:  https://openfoam.org
    \\  /    A nd           | Version:  13
     \\/     M anipulation  |
\*---------------------------------------------------------------------------*/
FoamFile
{
    format      ascii;
    class       volScalarField;
    location    "0.0007";
    object      H2O;
}
// * * * * * * * * * * * * * * * * * * * * * * * * * * * * * * * * * * * * * //

dimensions      [];

internalField   nonuniform List<scalar> 
33334
(
0.00299028
0.00299028
0.00299028
0.00299028
0.00299028
0.00299028
0.00299028
0.00299028
0.00299028
0.00299028
0.00299028
0.00299028
0.00299028
0.00299028
0.00299028
0.00299028
0.00299028
0.00299028
0.00299028
0.00299028
0.00299028
0.00299028
0.00299028
0.00299028
0.00299028
0.00299028
0.00299028
0.00299028
0.00299028
0.00299028
0.00299028
0.00299028
0.00299028
0.00299028
0.00299028
0.00299028
0.00299028
0.00299028
0.00299028
0.00299028
0.00299028
0.00299028
0.00299028
0.00299028
0.00299028
0.00299028
0.00299028
0.00299028
0.00299028
0.00299028
0.00299027
0.00299011
0.00298935
0.00298706
0.00298204
0.00297304
0.00295905
0.00293936
0.00291364
0.00288191
0.00284443
0.00280166
0.00275417
0.0027026
0.0026476
0.00258981
0.00252983
0.00246821
0.00240547
0.00234205
0.00227833
0.00221468
0.00215136
0.00208862
0.00202663
0.00196551
0.00190533
0.00184613
0.00178791
0.00173065
0.00167434
0.00161895
0.00156447
0.00151089
0.00145816
0.00140628
0.0013552
0.00130492
0.0012554
0.00120662
0.00115857
0.00111123
0.00106457
0.00101857
0.00097324
0.00092857
0.000884558
0.000841165
0.000798302
0.000755862
0.000713808
0.000672314
0.000631832
0.000592948
0.000555922
0.000520001
0.000482738
0.00043963
0.00038465
0.000313084
0.000227264
0.000140378
7.02381e-05
2.6773e-05
7.10675e-06
1.15363e-06
9.59471e-08
3.2739e-09
3.57379e-11
1.56283e-13
5.99285e-14
5.9661e-14
5.90406e-14
5.67782e-14
5.19579e-14
4.50535e-14
3.73632e-14
2.99083e-14
2.3038e-14
1.66996e-14
1.08212e-14
5.6333e-15
1.87283e-15
2.48077e-16
9.49731e-18
2.84511e-18
2.7948e-18
2.794e-18
2.794e-18
2.794e-18
2.794e-18
2.794e-18
2.794e-18
2.794e-18
2.794e-18
2.794e-18
2.794e-18
2.794e-18
2.794e-18
2.794e-18
2.794e-18
2.794e-18
2.794e-18
2.794e-18
2.794e-18
2.794e-18
2.794e-18
2.794e-18
2.794e-18
2.794e-18
2.794e-18
2.794e-18
2.794e-18
2.794e-18
2.794e-18
2.794e-18
0.00299028
0.00299028
0.00299028
0.00299028
0.00299028
0.00299028
0.00299028
0.00299028
0.00299028
0.00299028
0.00299028
0.00299028
0.00299028
0.00299028
0.00299028
0.00299028
0.00299028
0.00299028
0.00299028
0.00299028
0.00299028
0.00299028
0.00299028
0.00299028
0.00299028
0.00299028
0.00299028
0.00299028
0.00299028
0.00299028
0.00299028
0.00299028
0.00299028
0.00299028
0.00299028
0.00299028
0.00299028
0.00299028
0.00299028
0.00299028
0.00299028
0.00299028
0.00299028
0.00299028
0.00299028
0.00299028
0.00299028
0.00299028
0.00299028
0.00299028
0.00299027
0.00299011
0.00298935
0.00298706
0.00298204
0.00297304
0.00295905
0.00293936
0.00291364
0.00288191
0.00284443
0.00280166
0.00275417
0.0027026
0.0026476
0.00258981
0.00252983
0.00246822
0.00240547
0.00234205
0.00227833
0.00221468
0.00215136
0.00208862
0.00202663
0.00196551
0.00190534
0.00184613
0.00178791
0.00173065
0.00167434
0.00161895
0.00156448
0.00151089
0.00145817
0.00140628
0.00135521
0.00130492
0.00125541
0.00120663
0.00115858
0.00111124
0.00106458
0.00101859
0.000973253
0.000928583
0.000884571
0.000841179
0.000798317
0.000755877
0.000713824
0.00067233
0.000631848
0.000592964
0.000555938
0.000520017
0.000482756
0.000439651
0.000384679
0.000313119
0.0002273
0.000140408
7.0257e-05
2.67815e-05
7.10933e-06
1.1541e-06
9.59927e-08
3.27571e-09
3.57608e-11
1.56353e-13
5.99274e-14
5.96599e-14
5.90396e-14
5.67776e-14
5.19575e-14
4.50534e-14
3.73631e-14
2.99082e-14
2.30379e-14
1.66996e-14
1.08212e-14
5.63329e-15
1.87284e-15
2.48081e-16
9.49752e-18
2.84511e-18
2.7948e-18
2.794e-18
2.794e-18
2.794e-18
2.794e-18
2.794e-18
2.794e-18
2.794e-18
2.794e-18
2.794e-18
2.794e-18
2.794e-18
2.794e-18
2.794e-18
2.794e-18
2.794e-18
2.794e-18
2.794e-18
2.794e-18
2.794e-18
2.794e-18
2.794e-18
2.794e-18
2.794e-18
2.794e-18
2.794e-18
2.794e-18
2.794e-18
2.794e-18
2.794e-18
0.00299028
0.00299028
0.00299028
0.00299028
0.00299028
0.00299028
0.00299028
0.00299028
0.00299028
0.00299028
0.00299028
0.00299028
0.00299028
0.00299028
0.00299028
0.00299028
0.00299028
0.00299028
0.00299028
0.00299028
0.00299028
0.00299028
0.00299028
0.00299028
0.00299028
0.00299028
0.00299028
0.00299028
0.00299028
0.00299028
0.00299028
0.00299028
0.00299028
0.00299028
0.00299028
0.00299028
0.00299028
0.00299028
0.00299028
0.00299028
0.00299028
0.00299028
0.00299028
0.00299028
0.00299028
0.00299028
0.00299028
0.00299028
0.00299028
0.00299028
0.00299027
0.00299011
0.00298935
0.00298706
0.00298204
0.00297304
0.00295905
0.00293936
0.00291364
0.00288191
0.00284443
0.00280166
0.00275417
0.0027026
0.0026476
0.00258981
0.00252983
0.00246822
0.00240547
0.00234205
0.00227834
0.00221468
0.00215136
0.00208862
0.00202663
0.00196551
0.00190534
0.00184614
0.00178791
0.00173066
0.00167435
0.00161896
0.00156448
0.0015109
0.00145818
0.00140629
0.00135522
0.00130493
0.00125541
0.00120664
0.00115859
0.00111125
0.00106459
0.0010186
0.000973264
0.000928595
0.000884584
0.000841193
0.000798331
0.000755892
0.00071384
0.000672346
0.000631864
0.00059298
0.000555953
0.000520033
0.000482774
0.000439675
0.00038471
0.000313159
0.000227344
0.000140446
7.0282e-05
2.67934e-05
7.11311e-06
1.15482e-06
9.60607e-08
3.27833e-09
3.57929e-11
1.56448e-13
5.99254e-14
5.96578e-14
5.90378e-14
5.67761e-14
5.19566e-14
4.50528e-14
3.73626e-14
2.99079e-14
2.30376e-14
1.66994e-14
1.08211e-14
5.63328e-15
1.87285e-15
2.48085e-16
9.49775e-18
2.84511e-18
2.7948e-18
2.794e-18
2.794e-18
2.794e-18
2.794e-18
2.794e-18
2.794e-18
2.794e-18
2.794e-18
2.794e-18
2.794e-18
2.794e-18
2.794e-18
2.794e-18
2.794e-18
2.794e-18
2.794e-18
2.794e-18
2.794e-18
2.794e-18
2.794e-18
2.794e-18
2.794e-18
2.794e-18
2.794e-18
2.794e-18
2.794e-18
2.794e-18
2.794e-18
2.794e-18
0.00299028
0.00299028
0.00299028
0.00299028
0.00299028
0.00299028
0.00299028
0.00299028
0.00299028
0.00299028
0.00299028
0.00299028
0.00299028
0.00299028
0.00299028
0.00299028
0.00299028
0.00299028
0.00299028
0.00299028
0.00299028
0.00299028
0.00299028
0.00299028
0.00299028
0.00299028
0.00299028
0.00299028
0.00299028
0.00299028
0.00299028
0.00299028
0.00299028
0.00299028
0.00299028
0.00299028
0.00299028
0.00299028
0.00299028
0.00299028
0.00299028
0.00299028
0.00299028
0.00299028
0.00299028
0.00299028
0.00299028
0.00299028
0.00299028
0.00299028
0.00299027
0.00299011
0.00298935
0.00298706
0.00298204
0.00297304
0.00295905
0.00293936
0.00291364
0.00288191
0.00284443
0.00280166
0.00275417
0.0027026
0.0026476
0.00258981
0.00252983
0.00246821
0.00240547
0.00234205
0.00227834
0.00221468
0.00215136
0.00208862
0.00202663
0.00196551
0.00190534
0.00184614
0.00178791
0.00173066
0.00167435
0.00161896
0.00156448
0.0015109
0.00145818
0.00140629
0.00135522
0.00130493
0.00125542
0.00120664
0.0011586
0.00111125
0.00106459
0.0010186
0.000973269
0.0009286
0.000884589
0.000841198
0.000798337
0.000755898
0.000713846
0.000672353
0.000631871
0.000592986
0.00055596
0.00052004
0.000482782
0.000439686
0.000384726
0.00031318
0.000227368
0.000140468
7.0297e-05
2.68009e-05
7.11562e-06
1.15531e-06
9.61091e-08
3.28023e-09
3.58164e-11
1.56517e-13
5.99239e-14
5.96564e-14
5.90364e-14
5.67751e-14
5.19558e-14
4.50523e-14
3.73623e-14
2.99076e-14
2.30375e-14
1.66993e-14
1.08211e-14
5.63329e-15
1.87287e-15
2.48089e-16
9.49796e-18
2.84511e-18
2.7948e-18
2.794e-18
2.794e-18
2.794e-18
2.794e-18
2.794e-18
2.794e-18
2.794e-18
2.794e-18
2.794e-18
2.794e-18
2.794e-18
2.794e-18
2.794e-18
2.794e-18
2.794e-18
2.794e-18
2.794e-18
2.794e-18
2.794e-18
2.794e-18
2.794e-18
2.794e-18
2.794e-18
2.794e-18
2.794e-18
2.794e-18
2.794e-18
2.794e-18
2.794e-18
0.00299028
0.00299028
0.00299028
0.00299028
0.00299028
0.00299028
0.00299028
0.00299028
0.00299028
0.00299028
0.00299028
0.00299028
0.00299028
0.00299028
0.00299028
0.00299028
0.00299028
0.00299028
0.00299028
0.00299028
0.00299028
0.00299028
0.00299028
0.00299028
0.00299028
0.00299028
0.00299028
0.00299028
0.00299028
0.00299028
0.00299028
0.00299028
0.00299028
0.00299028
0.00299028
0.00299028
0.00299028
0.00299028
0.00299028
0.00299028
0.00299028
0.00299028
0.00299028
0.00299028
0.00299028
0.00299028
0.00299028
0.00299028
0.00299028
0.00299028
0.00299027
0.00299011
0.00298935
0.00298706
0.00298204
0.00297304
0.00295905
0.00293936
0.00291364
0.00288191
0.00284443
0.00280166
0.00275417
0.0027026
0.0026476
0.00258981
0.00252983
0.00246821
0.00240547
0.00234205
0.00227833
0.00221468
0.00215136
0.00208862
0.00202663
0.00196551
0.00190534
0.00184614
0.00178791
0.00173066
0.00167435
0.00161896
0.00156448
0.0015109
0.00145818
0.00140629
0.00135522
0.00130493
0.00125542
0.00120664
0.0011586
0.00111125
0.0010646
0.0010186
0.000973269
0.000928601
0.00088459
0.000841199
0.000798338
0.000755899
0.000713848
0.000672355
0.000631872
0.000592988
0.000555961
0.000520041
0.000482784
0.000439688
0.00038473
0.000313186
0.000227375
0.000140475
7.03018e-05
2.68034e-05
7.11651e-06
1.1555e-06
9.61289e-08
3.28106e-09
3.58273e-11
1.56552e-13
5.99235e-14
5.96559e-14
5.9036e-14
5.67747e-14
5.19556e-14
4.50521e-14
3.73622e-14
2.99076e-14
2.30375e-14
1.66994e-14
1.08211e-14
5.63333e-15
1.87289e-15
2.48094e-16
9.49815e-18
2.84511e-18
2.7948e-18
2.794e-18
2.794e-18
2.794e-18
2.794e-18
2.794e-18
2.794e-18
2.794e-18
2.794e-18
2.794e-18
2.794e-18
2.794e-18
2.794e-18
2.794e-18
2.794e-18
2.794e-18
2.794e-18
2.794e-18
2.794e-18
2.794e-18
2.794e-18
2.794e-18
2.794e-18
2.794e-18
2.794e-18
2.794e-18
2.794e-18
2.794e-18
2.794e-18
2.794e-18
0.00299028
0.00299028
0.00299028
0.00299028
0.00299028
0.00299028
0.00299028
0.00299028
0.00299028
0.00299028
0.00299028
0.00299028
0.00299028
0.00299028
0.00299028
0.00299028
0.00299028
0.00299028
0.00299028
0.00299028
0.00299028
0.00299028
0.00299028
0.00299028
0.00299028
0.00299028
0.00299028
0.00299028
0.00299028
0.00299028
0.00299028
0.00299028
0.00299028
0.00299028
0.00299028
0.00299028
0.00299028
0.00299028
0.00299028
0.00299028
0.00299028
0.00299028
0.00299028
0.00299028
0.00299028
0.00299028
0.00299028
0.00299028
0.00299028
0.00299028
0.00299027
0.00299011
0.00298935
0.00298706
0.00298204
0.00297304
0.00295905
0.00293936
0.00291364
0.00288191
0.00284443
0.00280166
0.00275417
0.0027026
0.0026476
0.00258981
0.00252983
0.00246821
0.00240547
0.00234205
0.00227833
0.00221468
0.00215136
0.00208862
0.00202663
0.00196551
0.00190534
0.00184614
0.00178791
0.00173066
0.00167435
0.00161896
0.00156448
0.0015109
0.00145818
0.00140629
0.00135522
0.00130493
0.00125542
0.00120664
0.0011586
0.00111125
0.0010646
0.0010186
0.000973269
0.000928601
0.00088459
0.000841199
0.000798338
0.000755899
0.000713848
0.000672355
0.000631872
0.000592988
0.000555961
0.000520041
0.000482784
0.000439688
0.00038473
0.000313187
0.000227376
0.000140476
7.03025e-05
2.68038e-05
7.11667e-06
1.15554e-06
9.61335e-08
3.28129e-09
3.58308e-11
1.56564e-13
5.99235e-14
5.96559e-14
5.9036e-14
5.67747e-14
5.19556e-14
4.50522e-14
3.73623e-14
2.99077e-14
2.30376e-14
1.66994e-14
1.08212e-14
5.63336e-15
1.8729e-15
2.48098e-16
9.49833e-18
2.84512e-18
2.7948e-18
2.794e-18
2.794e-18
2.794e-18
2.794e-18
2.794e-18
2.794e-18
2.794e-18
2.794e-18
2.794e-18
2.794e-18
2.794e-18
2.794e-18
2.794e-18
2.794e-18
2.794e-18
2.794e-18
2.794e-18
2.794e-18
2.794e-18
2.794e-18
2.794e-18
2.794e-18
2.794e-18
2.794e-18
2.794e-18
2.794e-18
2.794e-18
2.794e-18
2.794e-18
0.00299028
0.00299028
0.00299028
0.00299028
0.00299028
0.00299028
0.00299028
0.00299028
0.00299028
0.00299028
0.00299028
0.00299028
0.00299028
0.00299028
0.00299028
0.00299028
0.00299028
0.00299028
0.00299028
0.00299028
0.00299028
0.00299028
0.00299028
0.00299028
0.00299028
0.00299028
0.00299028
0.00299028
0.00299028
0.00299028
0.00299028
0.00299028
0.00299028
0.00299028
0.00299028
0.00299028
0.00299028
0.00299028
0.00299028
0.00299028
0.00299028
0.00299028
0.00299028
0.00299028
0.00299028
0.00299028
0.00299028
0.00299028
0.00299028
0.00299028
0.00299027
0.00299011
0.00298935
0.00298706
0.00298204
0.00297304
0.00295905
0.00293936
0.00291364
0.00288191
0.00284443
0.00280166
0.00275417
0.0027026
0.0026476
0.00258981
0.00252983
0.00246821
0.00240547
0.00234204
0.00227833
0.00221468
0.00215136
0.00208862
0.00202663
0.00196551
0.00190534
0.00184614
0.00178791
0.00173066
0.00167435
0.00161896
0.00156448
0.0015109
0.00145818
0.00140629
0.00135522
0.00130493
0.00125542
0.00120664
0.0011586
0.00111125
0.00106459
0.0010186
0.000973269
0.0009286
0.00088459
0.000841199
0.000798338
0.000755899
0.000713848
0.000672355
0.000631872
0.000592987
0.000555961
0.00052004
0.000482783
0.000439688
0.000384729
0.000313186
0.000227375
0.000140475
7.03021e-05
2.68037e-05
7.11664e-06
1.15554e-06
9.6134e-08
3.28134e-09
3.58316e-11
1.56568e-13
5.99236e-14
5.9656e-14
5.90361e-14
5.67749e-14
5.19558e-14
4.50524e-14
3.73624e-14
2.99078e-14
2.30377e-14
1.66995e-14
1.08212e-14
5.6334e-15
1.87292e-15
2.48102e-16
9.49851e-18
2.84512e-18
2.7948e-18
2.794e-18
2.794e-18
2.794e-18
2.794e-18
2.794e-18
2.794e-18
2.794e-18
2.794e-18
2.794e-18
2.794e-18
2.794e-18
2.794e-18
2.794e-18
2.794e-18
2.794e-18
2.794e-18
2.794e-18
2.794e-18
2.794e-18
2.794e-18
2.794e-18
2.794e-18
2.794e-18
2.794e-18
2.794e-18
2.794e-18
2.794e-18
2.794e-18
2.794e-18
0.00299028
0.00299028
0.00299028
0.00299028
0.00299028
0.00299028
0.00299028
0.00299028
0.00299028
0.00299028
0.00299028
0.00299028
0.00299028
0.00299028
0.00299028
0.00299028
0.00299028
0.00299028
0.00299028
0.00299028
0.00299028
0.00299028
0.00299028
0.00299028
0.00299028
0.00299028
0.00299028
0.00299028
0.00299028
0.00299028
0.00299028
0.00299028
0.00299028
0.00299028
0.00299028
0.00299028
0.00299028
0.00299028
0.00299028
0.00299028
0.00299028
0.00299028
0.00299028
0.00299028
0.00299028
0.00299028
0.00299028
0.00299028
0.00299028
0.00299028
0.00299027
0.00299011
0.00298935
0.00298706
0.00298204
0.00297304
0.00295905
0.00293936
0.00291364
0.00288191
0.00284443
0.00280166
0.00275417
0.0027026
0.0026476
0.00258981
0.00252983
0.00246821
0.00240547
0.00234204
0.00227833
0.00221468
0.00215136
0.00208862
0.00202663
0.00196551
0.00190534
0.00184613
0.00178791
0.00173066
0.00167435
0.00161896
0.00156448
0.0015109
0.00145818
0.00140629
0.00135522
0.00130493
0.00125542
0.00120664
0.0011586
0.00111125
0.00106459
0.0010186
0.000973269
0.0009286
0.00088459
0.000841199
0.000798338
0.000755899
0.000713847
0.000672354
0.000631871
0.000592987
0.00055596
0.00052004
0.000482783
0.000439687
0.000384728
0.000313184
0.000227373
0.000140474
7.03012e-05
2.68033e-05
7.11653e-06
1.15552e-06
9.61333e-08
3.28133e-09
3.58318e-11
1.56569e-13
5.99238e-14
5.96562e-14
5.90364e-14
5.67751e-14
5.19561e-14
4.50526e-14
3.73626e-14
2.9908e-14
2.30378e-14
1.66996e-14
1.08213e-14
5.63343e-15
1.87294e-15
2.48106e-16
9.49867e-18
2.84512e-18
2.7948e-18
2.794e-18
2.794e-18
2.794e-18
2.794e-18
2.794e-18
2.794e-18
2.794e-18
2.794e-18
2.794e-18
2.794e-18
2.794e-18
2.794e-18
2.794e-18
2.794e-18
2.794e-18
2.794e-18
2.794e-18
2.794e-18
2.794e-18
2.794e-18
2.794e-18
2.794e-18
2.794e-18
2.794e-18
2.794e-18
2.794e-18
2.794e-18
2.794e-18
2.794e-18
0.00299028
0.00299028
0.00299028
0.00299028
0.00299028
0.00299028
0.00299028
0.00299028
0.00299028
0.00299028
0.00299028
0.00299028
0.00299028
0.00299028
0.00299028
0.00299028
0.00299028
0.00299028
0.00299028
0.00299028
0.00299028
0.00299028
0.00299028
0.00299028
0.00299028
0.00299028
0.00299028
0.00299028
0.00299028
0.00299028
0.00299028
0.00299028
0.00299028
0.00299028
0.00299028
0.00299028
0.00299028
0.00299028
0.00299028
0.00299028
0.00299028
0.00299028
0.00299028
0.00299028
0.00299028
0.00299028
0.00299028
0.00299028
0.00299028
0.00299028
0.00299027
0.00299011
0.00298935
0.00298706
0.00298204
0.00297304
0.00295905
0.00293936
0.00291364
0.00288191
0.00284443
0.00280166
0.00275417
0.0027026
0.0026476
0.00258981
0.00252983
0.00246821
0.00240547
0.00234204
0.00227833
0.00221468
0.00215136
0.00208862
0.00202663
0.00196551
0.00190534
0.00184613
0.00178791
0.00173066
0.00167435
0.00161896
0.00156448
0.0015109
0.00145818
0.00140629
0.00135522
0.00130493
0.00125542
0.00120664
0.0011586
0.00111125
0.00106459
0.0010186
0.000973269
0.0009286
0.00088459
0.000841198
0.000798337
0.000755898
0.000713847
0.000672354
0.000631871
0.000592987
0.00055596
0.00052004
0.000482782
0.000439686
0.000384727
0.000313183
0.000227372
0.000140472
7.03001e-05
2.68028e-05
7.11639e-06
1.1555e-06
9.61316e-08
3.28129e-09
3.58317e-11
1.5657e-13
5.99241e-14
5.96565e-14
5.90367e-14
5.67754e-14
5.19563e-14
4.50528e-14
3.73628e-14
2.99081e-14
2.30379e-14
1.66997e-14
1.08213e-14
5.63347e-15
1.87296e-15
2.4811e-16
9.49883e-18
2.84512e-18
2.7948e-18
2.794e-18
2.794e-18
2.794e-18
2.794e-18
2.794e-18
2.794e-18
2.794e-18
2.794e-18
2.794e-18
2.794e-18
2.794e-18
2.794e-18
2.794e-18
2.794e-18
2.794e-18
2.794e-18
2.794e-18
2.794e-18
2.794e-18
2.794e-18
2.794e-18
2.794e-18
2.794e-18
2.794e-18
2.794e-18
2.794e-18
2.794e-18
2.794e-18
2.794e-18
0.00299028
0.00299028
0.00299028
0.00299028
0.00299028
0.00299028
0.00299028
0.00299028
0.00299028
0.00299028
0.00299028
0.00299028
0.00299028
0.00299028
0.00299028
0.00299028
0.00299028
0.00299028
0.00299028
0.00299028
0.00299028
0.00299028
0.00299028
0.00299028
0.00299028
0.00299028
0.00299028
0.00299028
0.00299028
0.00299028
0.00299028
0.00299028
0.00299028
0.00299028
0.00299028
0.00299028
0.00299028
0.00299028
0.00299028
0.00299028
0.00299028
0.00299028
0.00299028
0.00299028
0.00299028
0.00299028
0.00299028
0.00299028
0.00299028
0.00299028
0.00299027
0.00299011
0.00298935
0.00298706
0.00298204
0.00297304
0.00295905
0.00293936
0.00291364
0.00288191
0.00284443
0.00280166
0.00275417
0.0027026
0.0026476
0.00258981
0.00252983
0.00246821
0.00240547
0.00234204
0.00227833
0.00221468
0.00215136
0.00208862
0.00202663
0.00196551
0.00190534
0.00184613
0.00178791
0.00173066
0.00167434
0.00161896
0.00156448
0.0015109
0.00145818
0.00140629
0.00135522
0.00130493
0.00125541
0.00120664
0.0011586
0.00111125
0.00106459
0.0010186
0.000973268
0.0009286
0.000884589
0.000841198
0.000798337
0.000755898
0.000713847
0.000672354
0.000631871
0.000592986
0.00055596
0.000520039
0.000482782
0.000439685
0.000384726
0.000313181
0.00022737
0.000140471
7.02993e-05
2.68024e-05
7.11627e-06
1.15548e-06
9.61299e-08
3.28124e-09
3.58312e-11
1.5657e-13
5.99244e-14
5.96568e-14
5.90369e-14
5.67757e-14
5.19566e-14
4.5053e-14
3.7363e-14
2.99083e-14
2.3038e-14
1.66997e-14
1.08214e-14
5.6335e-15
1.87297e-15
2.48113e-16
9.49898e-18
2.84512e-18
2.7948e-18
2.794e-18
2.794e-18
2.794e-18
2.794e-18
2.794e-18
2.794e-18
2.794e-18
2.794e-18
2.794e-18
2.794e-18
2.794e-18
2.794e-18
2.794e-18
2.794e-18
2.794e-18
2.794e-18
2.794e-18
2.794e-18
2.794e-18
2.794e-18
2.794e-18
2.794e-18
2.794e-18
2.794e-18
2.794e-18
2.794e-18
2.794e-18
2.794e-18
2.794e-18
0.00299028
0.00299028
0.00299028
0.00299028
0.00299028
0.00299028
0.00299028
0.00299028
0.00299028
0.00299028
0.00299028
0.00299028
0.00299028
0.00299028
0.00299028
0.00299028
0.00299028
0.00299028
0.00299028
0.00299028
0.00299028
0.00299028
0.00299028
0.00299028
0.00299028
0.00299028
0.00299028
0.00299028
0.00299028
0.00299028
0.00299028
0.00299028
0.00299028
0.00299028
0.00299028
0.00299028
0.00299028
0.00299028
0.00299028
0.00299028
0.00299028
0.00299028
0.00299028
0.00299028
0.00299028
0.00299028
0.00299028
0.00299028
0.00299028
0.00299028
0.00299027
0.00299011
0.00298935
0.00298706
0.00298204
0.00297304
0.00295905
0.00293936
0.00291364
0.00288191
0.00284443
0.00280166
0.00275417
0.0027026
0.0026476
0.00258981
0.00252983
0.00246821
0.00240547
0.00234204
0.00227833
0.00221467
0.00215136
0.00208862
0.00202663
0.00196551
0.00190534
0.00184613
0.00178791
0.00173066
0.00167434
0.00161896
0.00156448
0.0015109
0.00145818
0.00140629
0.00135522
0.00130493
0.00125541
0.00120664
0.0011586
0.00111125
0.00106459
0.0010186
0.000973268
0.000928599
0.000884589
0.000841198
0.000798337
0.000755898
0.000713846
0.000672353
0.00063187
0.000592986
0.000555959
0.000520039
0.000482781
0.000439685
0.000384725
0.000313181
0.000227369
0.00014047
7.02988e-05
2.68021e-05
7.11619e-06
1.15547e-06
9.61287e-08
3.2812e-09
3.58308e-11
1.56569e-13
5.99246e-14
5.96571e-14
5.90372e-14
5.67759e-14
5.19568e-14
4.50532e-14
3.73631e-14
2.99084e-14
2.30381e-14
1.66998e-14
1.08214e-14
5.63354e-15
1.87299e-15
2.48116e-16
9.49911e-18
2.84512e-18
2.7948e-18
2.794e-18
2.794e-18
2.794e-18
2.794e-18
2.794e-18
2.794e-18
2.794e-18
2.794e-18
2.794e-18
2.794e-18
2.794e-18
2.794e-18
2.794e-18
2.794e-18
2.794e-18
2.794e-18
2.794e-18
2.794e-18
2.794e-18
2.794e-18
2.794e-18
2.794e-18
2.794e-18
2.794e-18
2.794e-18
2.794e-18
2.794e-18
2.794e-18
2.794e-18
0.00299028
0.00299028
0.00299028
0.00299028
0.00299028
0.00299028
0.00299028
0.00299028
0.00299028
0.00299028
0.00299028
0.00299028
0.00299028
0.00299028
0.00299028
0.00299028
0.00299028
0.00299028
0.00299028
0.00299028
0.00299028
0.00299028
0.00299028
0.00299028
0.00299028
0.00299028
0.00299028
0.00299028
0.00299028
0.00299028
0.00299028
0.00299028
0.00299028
0.00299028
0.00299028
0.00299028
0.00299028
0.00299028
0.00299028
0.00299028
0.00299028
0.00299028
0.00299028
0.00299028
0.00299028
0.00299028
0.00299028
0.00299028
0.00299028
0.00299028
0.00299027
0.00299011
0.00298935
0.00298706
0.00298204
0.00297304
0.00295905
0.00293936
0.00291364
0.00288191
0.00284443
0.00280166
0.00275417
0.0027026
0.0026476
0.00258981
0.00252983
0.00246821
0.00240547
0.00234204
0.00227833
0.00221467
0.00215136
0.00208862
0.00202663
0.00196551
0.00190533
0.00184613
0.00178791
0.00173066
0.00167434
0.00161896
0.00156448
0.0015109
0.00145818
0.00140629
0.00135522
0.00130493
0.00125541
0.00120664
0.0011586
0.00111125
0.00106459
0.0010186
0.000973268
0.000928599
0.000884589
0.000841198
0.000798337
0.000755898
0.000713846
0.000672353
0.00063187
0.000592986
0.000555959
0.000520039
0.000482781
0.000439685
0.000384725
0.00031318
0.000227368
0.000140469
7.02984e-05
2.6802e-05
7.11614e-06
1.15546e-06
9.61279e-08
3.28117e-09
3.58305e-11
1.56568e-13
5.99249e-14
5.96573e-14
5.90374e-14
5.67761e-14
5.1957e-14
4.50534e-14
3.73633e-14
2.99085e-14
2.30382e-14
1.66999e-14
1.08215e-14
5.63358e-15
1.87301e-15
2.4812e-16
9.49924e-18
2.84512e-18
2.7948e-18
2.794e-18
2.794e-18
2.794e-18
2.794e-18
2.794e-18
2.794e-18
2.794e-18
2.794e-18
2.794e-18
2.794e-18
2.794e-18
2.794e-18
2.794e-18
2.794e-18
2.794e-18
2.794e-18
2.794e-18
2.794e-18
2.794e-18
2.794e-18
2.794e-18
2.794e-18
2.794e-18
2.794e-18
2.794e-18
2.794e-18
2.794e-18
2.794e-18
2.794e-18
0.00299028
0.00299028
0.00299028
0.00299028
0.00299028
0.00299028
0.00299028
0.00299028
0.00299028
0.00299028
0.00299028
0.00299028
0.00299028
0.00299028
0.00299028
0.00299028
0.00299028
0.00299028
0.00299028
0.00299028
0.00299028
0.00299028
0.00299028
0.00299028
0.00299028
0.00299028
0.00299028
0.00299028
0.00299028
0.00299028
0.00299028
0.00299028
0.00299028
0.00299028
0.00299028
0.00299028
0.00299028
0.00299028
0.00299028
0.00299028
0.00299028
0.00299028
0.00299028
0.00299028
0.00299028
0.00299028
0.00299028
0.00299028
0.00299028
0.00299028
0.00299027
0.00299011
0.00298935
0.00298706
0.00298204
0.00297304
0.00295905
0.00293936
0.00291364
0.00288191
0.00284443
0.00280166
0.00275417
0.0027026
0.0026476
0.00258981
0.00252983
0.00246821
0.00240547
0.00234204
0.00227833
0.00221467
0.00215136
0.00208862
0.00202663
0.00196551
0.00190533
0.00184613
0.00178791
0.00173066
0.00167434
0.00161896
0.00156448
0.0015109
0.00145817
0.00140629
0.00135522
0.00130493
0.00125541
0.00120664
0.0011586
0.00111125
0.00106459
0.0010186
0.000973268
0.000928599
0.000884589
0.000841197
0.000798337
0.000755897
0.000713846
0.000672353
0.00063187
0.000592986
0.000555959
0.000520039
0.000482781
0.000439684
0.000384725
0.000313179
0.000227368
0.000140469
7.02981e-05
2.68018e-05
7.1161e-06
1.15545e-06
9.61273e-08
3.28115e-09
3.58303e-11
1.56568e-13
5.99251e-14
5.96575e-14
5.90376e-14
5.67764e-14
5.19572e-14
4.50536e-14
3.73635e-14
2.99087e-14
2.30383e-14
1.67e-14
1.08216e-14
5.63361e-15
1.87302e-15
2.48123e-16
9.49935e-18
2.84512e-18
2.7948e-18
2.794e-18
2.794e-18
2.794e-18
2.794e-18
2.794e-18
2.794e-18
2.794e-18
2.794e-18
2.794e-18
2.794e-18
2.794e-18
2.794e-18
2.794e-18
2.794e-18
2.794e-18
2.794e-18
2.794e-18
2.794e-18
2.794e-18
2.794e-18
2.794e-18
2.794e-18
2.794e-18
2.794e-18
2.794e-18
2.794e-18
2.794e-18
2.794e-18
2.794e-18
0.00299028
0.00299028
0.00299028
0.00299028
0.00299028
0.00299028
0.00299028
0.00299028
0.00299028
0.00299028
0.00299028
0.00299028
0.00299028
0.00299028
0.00299028
0.00299028
0.00299028
0.00299028
0.00299028
0.00299028
0.00299028
0.00299028
0.00299028
0.00299028
0.00299028
0.00299028
0.00299028
0.00299028
0.00299028
0.00299028
0.00299028
0.00299028
0.00299028
0.00299028
0.00299028
0.00299028
0.00299028
0.00299028
0.00299028
0.00299028
0.00299028
0.00299028
0.00299028
0.00299028
0.00299028
0.00299028
0.00299028
0.00299028
0.00299028
0.00299028
0.00299027
0.00299011
0.00298935
0.00298706
0.00298204
0.00297304
0.00295905
0.00293936
0.00291364
0.00288191
0.00284443
0.00280165
0.00275417
0.0027026
0.0026476
0.00258981
0.00252983
0.00246821
0.00240547
0.00234204
0.00227833
0.00221467
0.00215136
0.00208862
0.00202663
0.00196551
0.00190533
0.00184613
0.00178791
0.00173066
0.00167434
0.00161896
0.00156448
0.0015109
0.00145817
0.00140629
0.00135522
0.00130493
0.00125541
0.00120664
0.0011586
0.00111125
0.00106459
0.0010186
0.000973268
0.000928599
0.000884589
0.000841197
0.000798336
0.000755897
0.000713846
0.000672353
0.00063187
0.000592986
0.000555959
0.000520038
0.000482781
0.000439684
0.000384724
0.000313179
0.000227368
0.000140468
7.02979e-05
2.68017e-05
7.11607e-06
1.15545e-06
9.61269e-08
3.28114e-09
3.58302e-11
1.56568e-13
5.99253e-14
5.96577e-14
5.90378e-14
5.67766e-14
5.19574e-14
4.50538e-14
3.73636e-14
2.99088e-14
2.30385e-14
1.67001e-14
1.08216e-14
5.63365e-15
1.87304e-15
2.48125e-16
9.49946e-18
2.84512e-18
2.7948e-18
2.794e-18
2.794e-18
2.794e-18
2.794e-18
2.794e-18
2.794e-18
2.794e-18
2.794e-18
2.794e-18
2.794e-18
2.794e-18
2.794e-18
2.794e-18
2.794e-18
2.794e-18
2.794e-18
2.794e-18
2.794e-18
2.794e-18
2.794e-18
2.794e-18
2.794e-18
2.794e-18
2.794e-18
2.794e-18
2.794e-18
2.794e-18
2.794e-18
2.794e-18
0.00299028
0.00299028
0.00299028
0.00299028
0.00299028
0.00299028
0.00299028
0.00299028
0.00299028
0.00299028
0.00299028
0.00299028
0.00299028
0.00299028
0.00299028
0.00299028
0.00299028
0.00299028
0.00299028
0.00299028
0.00299028
0.00299028
0.00299028
0.00299028
0.00299028
0.00299028
0.00299028
0.00299028
0.00299028
0.00299028
0.00299028
0.00299028
0.00299028
0.00299028
0.00299028
0.00299028
0.00299028
0.00299028
0.00299028
0.00299028
0.00299028
0.00299028
0.00299028
0.00299028
0.00299028
0.00299028
0.00299028
0.00299028
0.00299028
0.00299028
0.00299027
0.00299011
0.00298935
0.00298706
0.00298204
0.00297304
0.00295905
0.00293936
0.00291364
0.00288191
0.00284443
0.00280165
0.00275417
0.0027026
0.0026476
0.00258981
0.00252983
0.00246821
0.00240547
0.00234204
0.00227833
0.00221467
0.00215136
0.00208862
0.00202663
0.00196551
0.00190533
0.00184613
0.00178791
0.00173066
0.00167434
0.00161896
0.00156448
0.0015109
0.00145817
0.00140629
0.00135522
0.00130493
0.00125541
0.00120664
0.0011586
0.00111125
0.00106459
0.0010186
0.000973268
0.000928599
0.000884589
0.000841197
0.000798336
0.000755897
0.000713846
0.000672353
0.00063187
0.000592985
0.000555959
0.000520038
0.000482781
0.000439684
0.000384724
0.000313179
0.000227367
0.000140468
7.02977e-05
2.68017e-05
7.11605e-06
1.15544e-06
9.61265e-08
3.28112e-09
3.583e-11
1.56568e-13
5.99254e-14
5.96579e-14
5.9038e-14
5.67767e-14
5.19576e-14
4.50539e-14
3.73638e-14
2.99089e-14
2.30386e-14
1.67002e-14
1.08217e-14
5.63369e-15
1.87305e-15
2.48128e-16
9.49954e-18
2.84512e-18
2.7948e-18
2.794e-18
2.794e-18
2.794e-18
2.794e-18
2.794e-18
2.794e-18
2.794e-18
2.794e-18
2.794e-18
2.794e-18
2.794e-18
2.794e-18
2.794e-18
2.794e-18
2.794e-18
2.794e-18
2.794e-18
2.794e-18
2.794e-18
2.794e-18
2.794e-18
2.794e-18
2.794e-18
2.794e-18
2.794e-18
2.794e-18
2.794e-18
2.794e-18
2.794e-18
0.00299028
0.00299028
0.00299028
0.00299028
0.00299028
0.00299028
0.00299028
0.00299028
0.00299028
0.00299028
0.00299028
0.00299028
0.00299028
0.00299028
0.00299028
0.00299028
0.00299028
0.00299028
0.00299028
0.00299028
0.00299028
0.00299028
0.00299028
0.00299028
0.00299028
0.00299028
0.00299028
0.00299028
0.00299028
0.00299028
0.00299028
0.00299028
0.00299028
0.00299028
0.00299028
0.00299028
0.00299028
0.00299028
0.00299028
0.00299028
0.00299028
0.00299028
0.00299028
0.00299028
0.00299028
0.00299028
0.00299028
0.00299028
0.00299028
0.00299028
0.00299027
0.00299011
0.00298935
0.00298706
0.00298204
0.00297304
0.00295905
0.00293936
0.00291364
0.00288191
0.00284443
0.00280165
0.00275417
0.0027026
0.0026476
0.00258981
0.00252982
0.00246821
0.00240547
0.00234204
0.00227833
0.00221467
0.00215136
0.00208862
0.00202663
0.00196551
0.00190533
0.00184613
0.00178791
0.00173066
0.00167434
0.00161896
0.00156448
0.0015109
0.00145817
0.00140629
0.00135522
0.00130493
0.00125541
0.00120664
0.0011586
0.00111125
0.00106459
0.0010186
0.000973268
0.000928599
0.000884588
0.000841197
0.000798336
0.000755897
0.000713845
0.000672352
0.00063187
0.000592985
0.000555958
0.000520038
0.00048278
0.000439684
0.000384724
0.000313179
0.000227367
0.000140468
7.02976e-05
2.68016e-05
7.11603e-06
1.15544e-06
9.61261e-08
3.28111e-09
3.58299e-11
1.56567e-13
5.99256e-14
5.9658e-14
5.90382e-14
5.67769e-14
5.19577e-14
4.50541e-14
3.73639e-14
2.9909e-14
2.30387e-14
1.67002e-14
1.08217e-14
5.63372e-15
1.87307e-15
2.4813e-16
9.49962e-18
2.84512e-18
2.7948e-18
2.794e-18
2.794e-18
2.794e-18
2.794e-18
2.794e-18
2.794e-18
2.794e-18
2.794e-18
2.794e-18
2.794e-18
2.794e-18
2.794e-18
2.794e-18
2.794e-18
2.794e-18
2.794e-18
2.794e-18
2.794e-18
2.794e-18
2.794e-18
2.794e-18
2.794e-18
2.794e-18
2.794e-18
2.794e-18
2.794e-18
2.794e-18
2.794e-18
2.794e-18
0.00299028
0.00299028
0.00299028
0.00299028
0.00299028
0.00299028
0.00299028