/*--------------------------------*- C++ -*----------------------------------*\
  =========                 |
  \\      /  F ield         | OpenFOAM: The Open Source CFD Toolbox
   \\    /   O peration     | Website:  https://openfoam.org
    \\  /    A nd           | Version:  13
     \\/     M anipulation  |
\*---------------------------------------------------------------------------*/
FoamFile
{
    format      ascii;
    class       surfaceScalarField;
    location    "0.0007";
    object      phi;
}
// * * * * * * * * * * * * * * * * * * * * * * * * * * * * * * * * * * * * * //

dimensions      [1 0 -1 0 0 0 0];

internalField   nonuniform List<scalar> 
66301
(
-3.33067e-16
0
0
3.33067e-16
0
4.44089e-16
6.66134e-16
0
-3.33067e-16
-2.22045e-16
3.33067e-16
2.22045e-16
6.66134e-16
5.55112e-16
2.22045e-16
-3.33067e-16
-2.22045e-16
-4.44089e-16
5.55112e-16
0
1.11022e-16
-1.11022e-16
4.44089e-16
-3.33067e-16
5.55112e-16
1.11022e-16
1.11022e-16
-2.22045e-16
0
-5.55112e-16
3.33067e-16
-1.11022e-16
-1.11022e-16
-4.44089e-16
-5.55112e-16
-3.33067e-16
-1.11022e-16
-3.33067e-16
2.22045e-16
-3.33067e-16
1.11022e-16
-3.33067e-16
3.33067e-16
-1.11022e-16
0
-3.33067e-16
0
0
3.33067e-16
2.22045e-16
4.44089e-16
-1.11022e-16
4.44089e-16
-2.22045e-16
-1.11022e-16
-2.22045e-16
-6.66134e-16
-3.33067e-16
-5.55112e-16
1.11022e-16
-5.55112e-16
1.11022e-16
-2.22045e-16
0
-3.33067e-16
0
-1.11022e-16
0
-2.22045e-16
-2.22045e-16
-3.33067e-16
-1.11022e-16
2.22045e-16
0
2.22045e-16
3.33067e-16
2.22045e-16
0
-1.11022e-16
0
1.11022e-16
0
3.33067e-16
-3.33067e-16
3.33067e-16
-3.33067e-16
-3.33067e-16
1.11022e-16
-2.22045e-16
3.33067e-16
-3.33067e-16
0
1.10578e-13
-3.33067e-16
4.69811e-10
1.44329e-15
2.16869e-07
1.12521e-12
1.51962e-05
9.28829e-11
0.000248322
1.72788e-09
0.00149414
1.17849e-08
0.00487262
4.21104e-08
0.011088
1.01926e-07
0.0202836
1.94057e-07
0.0322195
3.16024e-07
0.0464477
4.62568e-07
0.0624454
6.27555e-07
0.0797054
8.05119e-07
0.0977809
9.90256e-07
0.116303
1.17896e-06
0.134982
1.36822e-06
0.153593
1.55596e-06
0.171962
1.74135e-06
0.189962
1.92455e-06
0.207494
2.09823e-06
0.224476
2.27361e-06
0.240835
2.44419e-06
0.256493
2.60984e-06
0.271347
2.77087e-06
0.285256
2.92341e-06
0.298026
3.11003e-06
0.309399
3.31367e-06
0.31908
3.53159e-06
0.326803
3.77685e-06
0.332436
4.04061e-06
0.336083
4.31655e-06
0.338093
4.60321e-06
0.338941
5.06126e-06
0.339218
5.64653e-06
0.339182
4.37784e-06
0.338662
4.81735e-06
0.338063
5.10216e-06
0.337619
4.98394e-06
0.337314
4.90144e-06
0.337107
4.97281e-06
0.336951
4.95196e-06
0.336793
4.76925e-06
0.336608
4.94864e-06
0.336425
4.63354e-06
0.336286
4.72591e-06
0.336185
5.11633e-06
0.336076
4.06213e-06
0.335906
5.26105e-06
0.335688
4.52315e-06
0.335496
4.44106e-06
0.335363
5.90862e-06
0.335252
5.75463e-06
0.335103
3.63261e-06
0.334882
4.26309e-06
0.33466
4.51166e-06
0.334501
4.23739e-06
0.334364
4.27259e-06
0.334177
3.62301e-06
0.333877
2.37621e-06
0.333488
9.72287e-07
0.333454
-3.34532e-07
0.334348
-2.3965e-06
0.336914
-6.19679e-06
0.34409
-1.07386e-05
0.360347
-1.35354e-05
0.392222
-1.47151e-05
0.447613
-1.52226e-05
0.530733
-1.55109e-05
0.63138
-1.38111e-05
0.717662
-8.29851e-06
0.766152
-3.5429e-06
0.778618
-2.40166e-06
0.779108
-3.07169e-06
0.778333
-4.31579e-06
0.776571
-5.8947e-06
0.773921
-7.18875e-06
0.771434
-7.51514e-06
0.769378
-7.41659e-06
0.767414
-7.16072e-06
0.765911
-6.81445e-06
0.764948
-6.44078e-06
0.764195
-6.4119e-06
0.762966
-6.51584e-06
0.759472
-6.4495e-06
0.748561
-6.27925e-06
0.715874
-6.10199e-06
0.624283
-5.74202e-06
0.410774
-4.80985e-06
0.126978
-2.51502e-06
0.00920021
-5.46881e-07
9.3015e-05
-3.19272e-08
8.98864e-08
-3.00163e-10
6.93906e-12
-1.99063e-13
8.88178e-16
-8.88178e-16
2.22045e-16
-2.22045e-16
2.22045e-16
-3.88578e-16
-3.88578e-16
-2.77556e-16
1.11022e-16
2.22045e-16
-2.22045e-16
-2.77556e-16
-1.11022e-16
-1.66533e-16
1.11022e-16
0
1.66533e-16
2.22045e-16
-5.55112e-17
1.66533e-16
3.33067e-16
1.66533e-16
0
1.11022e-16
-3.33067e-16
1.66533e-16
5.55112e-17
3.33067e-16
5.55112e-17
4.44089e-16
-3.33067e-16
1.66533e-16
-5.55112e-17
2.77556e-16
-4.44089e-16
-1.66533e-16
2.77556e-16
0
1.66533e-16
-1.11022e-16
-5.55112e-17
-1.11022e-16
5.55112e-17
0
5.55112e-17
-5.55112e-17
2.22045e-16
-2.22045e-16
-2.22045e-16
-2.77556e-16
-2.77556e-16
-1.66533e-16
-3.33067e-16
0
0
0
-1.11022e-16
-3.33067e-16
0
2.22045e-16
0
2.22045e-16
2.22045e-16
6.66134e-16
-2.22045e-16
1.11022e-16
-4.44089e-16
5.55112e-16
4.44089e-16
4.44089e-16
0
2.22045e-16
-4.44089e-16
0
-4.44089e-16
6.66134e-16
-3.33067e-16
2.22045e-16
-3.33067e-16
0
-3.33067e-16
3.33067e-16
-5.55112e-16
-1.11022e-16
-4.44089e-16
0
-3.33067e-16
-1.11022e-16
-2.22045e-16
-2.22045e-16
-1.11022e-16
1.11022e-16
0
3.33067e-16
-3.33067e-16
0
-3.33067e-16
1.11022e-16
-4.44089e-16
2.22045e-16
-2.22045e-16
1.11022e-16
-1.11022e-16
2.22045e-16
0
4.44089e-16
0
-1.11022e-16
-3.33067e-16
-1.11022e-16
-1.11022e-16
-5.55112e-16
-2.22045e-16
-4.44089e-16
-2.22045e-16
-2.22045e-16
-4.44089e-16
-2.22045e-16
-2.22045e-16
-2.22045e-16
0
-2.22045e-16
-3.33067e-16
-1.11022e-16
-1.11022e-16
6.66134e-16
0
-2.22045e-16
-2.22045e-16
0
-1.11022e-16
0
-1.11022e-16
0
0
3.33067e-16
2.22045e-16
5.55112e-16
1.11022e-16
-2.22045e-16
-4.44089e-16
-3.33067e-16
0
-3.33067e-16
-1.11022e-16
1.11022e-13
-2.22045e-16
4.69833e-10
8.88178e-16
2.16878e-07
5.84199e-13
1.51968e-05
5.18463e-11
0.000248329
1.0843e-09
0.00149418
8.0557e-09
0.00487273
3.07954e-08
0.0110883
7.8677e-08
0.0202841
1.56336e-07
0.0322204
2.63324e-07
0.0464491
3.95865e-07
0.0624475
5.48677e-07
0.0797084
7.16251e-07
0.097785
8.93629e-07
0.116309
1.07672e-06
0.134989
1.26234e-06
0.153601
1.44819e-06
0.171972
1.63311e-06
0.189974
1.81865e-06
0.207508
1.99248e-06
0.224493
2.16526e-06
0.240855
2.33517e-06
0.256515
2.50545e-06
0.271371
2.71038e-06
0.285284
2.84162e-06
0.298057
3.02092e-06
0.309433
3.23923e-06
0.319117
3.46786e-06
0.326844
3.71766e-06
0.332482
3.99746e-06
0.336133
4.29839e-06
0.338148
4.60464e-06
0.339001
4.87698e-06
0.339283
5.2464e-06
0.339251
5.06614e-06
0.338736
4.6369e-06
0.338142
4.78287e-06
0.337703
4.94174e-06
0.337403
4.89779e-06
0.337201
4.86315e-06
0.33705
4.89781e-06
0.336898
4.66812e-06
0.336717
4.92232e-06
0.336538
4.51123e-06
0.336405
4.61921e-06
0.336308
5.06114e-06
0.336204
3.66487e-06
0.336039
5.42479e-06
0.335826
4.10596e-06
0.335638
4.41983e-06
0.335512
5.16431e-06
0.335407
5.48827e-06
0.335262
2.82314e-06
0.335045
4.36999e-06
0.334829
4.15976e-06
0.334675
3.57757e-06
0.334543
3.44571e-06
0.33436
2.84785e-06
0.334063
1.88986e-06
0.333674
4.62892e-07
0.333641
-3.89202e-07
0.334531
-1.85326e-06
0.337087
-4.51411e-06
0.344248
-7.80214e-06
0.360483
-9.43425e-06
0.392336
-1.06925e-05
0.447703
-1.24473e-05
0.530805
-1.55994e-05
0.631444
-1.82157e-05
0.717738
-1.89073e-05
0.766248
-1.69297e-05
0.778725
-9.27296e-06
0.779215
-6.02188e-06
0.778438
-5.99157e-06
0.776672
-6.61085e-06
0.774014
-6.85671e-06
0.771518
-6.87285e-06
0.769454
-6.80076e-06
0.767482
-6.55335e-06
0.765972
-6.20624e-06
0.765001
-5.9866e-06
0.764241
-5.98415e-06
0.763006
-5.93709e-06
0.759505
-5.80454e-06
0.748586
-5.6609e-06
0.715892
-5.50731e-06
0.624295
-5.07439e-06
0.410781
-3.6422e-06
0.126981
-1.734e-06
0.00920048
-3.32352e-07
9.30186e-05
-1.61483e-08
8.98908e-08
-1.25217e-10
6.93928e-12
-1.01696e-13
7.77156e-16
3.33067e-16
1.11022e-16
-2.77556e-16
2.77556e-16
-1.66533e-16
5.55112e-17
-1.66533e-16
-1.66533e-16
-2.77556e-16
-2.77556e-16
-4.44089e-16
5.55112e-17
5.55112e-17
1.11022e-16
-1.11022e-16
1.11022e-16
-2.22045e-16
1.11022e-16
-2.77556e-16
1.11022e-16
0
1.66533e-16
-5.55112e-17
-1.66533e-16
-2.77556e-16
-1.11022e-16
-2.77556e-16
-1.11022e-16
-1.11022e-16
-3.33067e-16
-3.33067e-16
-4.44089e-16
-3.33067e-16
-3.33067e-16
-1.66533e-16
1.11022e-16
5.55112e-17
2.77556e-16
-1.66533e-16
-5.55112e-17
-4.44089e-16
0
-3.33067e-16
-1.66533e-16
0
1.11022e-16
2.22045e-16
-5.55112e-17
-1.66533e-16
-3.88578e-16
-1.11022e-16
-1.66533e-16
-3.33067e-16
1.11022e-16
0
3.33067e-16
0
3.33067e-16
5.55112e-16
0
0
-2.22045e-16
4.44089e-16
2.22045e-16
6.66134e-16
-2.22045e-16
3.33067e-16
-2.22045e-16
1.11022e-16
-3.33067e-16
3.33067e-16
1.11022e-16
2.22045e-16
-3.33067e-16
5.55112e-16
-2.22045e-16
2.22045e-16
-5.55112e-16
1.11022e-16
-1.11022e-16
2.22045e-16
-2.22045e-16
-1.11022e-16
-4.44089e-16
-4.44089e-16
-4.44089e-16
3.33067e-16
-1.11022e-16
0
0
0
1.11022e-16
2.22045e-16
-1.11022e-16
2.22045e-16
-1.11022e-16
1.11022e-16
-4.44089e-16
4.44089e-16
-2.22045e-16
3.33067e-16
0
1.11022e-16
-1.11022e-16
-1.11022e-16
-1.11022e-16
-3.33067e-16
-1.11022e-16
-1.11022e-16
0
-5.55112e-16
-1.11022e-16
-7.77156e-16
-1.11022e-16
-1.11022e-16
0
-2.22045e-16
-1.11022e-16
-3.33067e-16
-1.11022e-16
-1.11022e-16
0
-1.11022e-16
1.11022e-16
0
3.33067e-16
-1.11022e-16
1.11022e-16
4.44089e-16
0
1.11022e-16
-4.44089e-16
1.11022e-16
-1.11022e-16
2.22045e-16
0
0
0
1.11022e-16
-1.11022e-16
-3.33067e-16
0
-3.33067e-16
0
1.11133e-13
-1.11022e-16
4.69861e-10
8.88178e-16
2.16887e-07
4.13558e-13
1.51972e-05
3.8636e-11
0.000248333
8.25485e-10
0.0014942
6.22445e-09
0.00487276
2.42572e-08
0.0110883
6.34505e-08
0.0202842
1.29224e-07
0.0322205
2.22643e-07
0.0464492
3.41246e-07
0.0624476
4.80661e-07
0.0797085
6.35955e-07
0.0977851
8.02479e-07
0.116309
9.76258e-07
0.134989
1.15414e-06
0.153601
1.33376e-06
0.171972
1.51343e-06
0.189974
1.69248e-06
0.207508
1.86756e-06
0.224493
2.03898e-06
0.240855
2.21079e-06
0.256515
2.38574e-06
0.271371
2.57265e-06
0.285284
2.73601e-06
0.298057
2.90499e-06
0.309433
3.10714e-06
0.319117
3.33697e-06
0.326844
3.58815e-06
0.332482
3.86246e-06
0.336133
4.14958e-06
0.338148
4.44571e-06
0.339001
4.66396e-06
0.339283
4.87875e-06
0.339251
5.11267e-06
0.338737
4.6958e-06
0.338142
4.65256e-06
0.337703
4.78821e-06
0.337404
4.81132e-06
0.337201
4.732e-06
0.33705
4.77151e-06
0.336898
4.54089e-06
0.336717
4.85258e-06
0.336538
4.4067e-06
0.336405
4.496e-06
0.336309
4.90572e-06
0.336204
3.42975e-06
0.33604
5.35337e-06
0.335826
3.80538e-06
0.335639
4.28898e-06
0.335512
4.40399e-06
0.335407
5.15402e-06
0.335262
2.07439e-06
0.335046
4.30468e-06
0.334829
3.75939e-06
0.334675
3.06717e-06
0.334543
2.80924e-06
0.33436
1.96011e-06
0.334063
1.58855e-06
0.333674
5.1745e-08
0.33364
-6.84728e-07
0.334531
-1.65974e-06
0.337087
-3.72008e-06
0.344247
-6.16954e-06
0.360481
-8.16325e-06
0.392332
-9.85911e-06
0.447696
-1.17861e-05
0.530796
-1.50003e-05
0.631439
-1.88208e-05
0.717738
-2.14992e-05
0.766249
-1.90892e-05
0.778726
-1.08179e-05
0.779215
-7.88797e-06
0.778438
-7.49047e-06
0.776672
-7.14877e-06
0.774014
-6.76686e-06
0.771518
-6.54815e-06
0.769454
-6.39678e-06
0.767481
-6.13808e-06
0.765971
-5.89073e-06
0.765001
-5.77318e-06
0.76424
-5.68767e-06
0.763005
-5.56454e-06
0.759504
-5.42432e-06
0.748586
-5.26778e-06
0.715891
-5.01241e-06
0.624294
-4.54443e-06
0.410782
-3.26386e-06
0.126982
-1.52066e-06
0.00920068
-2.86189e-07
9.30222e-05
-1.34025e-08
8.98961e-08
-9.64953e-11
6.9395e-12
-6.94445e-14
8.32667e-16
-2.22045e-16
2.22045e-16
1.66533e-16
6.10623e-16
1.66533e-16
-5.55112e-17
-3.33067e-16
-4.996e-16
-4.44089e-16
1.66533e-16
-3.88578e-16
-1.66533e-16
-2.77556e-16
3.33067e-16
5.55112e-17
1.66533e-16
-4.44089e-16
3.88578e-16
-4.996e-16
1.66533e-16
-7.21645e-16
-5.55112e-17
-6.66134e-16
-2.22045e-16
-7.21645e-16
0
-6.10623e-16
-1.66533e-16
-6.66134e-16
-3.33067e-16
-6.10623e-16
-1.11022e-16
-3.88578e-16
-1.11022e-16
-6.66134e-16
-2.22045e-16
-4.996e-16
1.66533e-16
-4.44089e-16
-1.66533e-16
-7.21645e-16
2.77556e-16
-4.996e-16
5.55112e-17
-6.66134e-16
-1.66533e-16
-3.88578e-16
-1.66533e-16
-3.88578e-16
-3.88578e-16
-1.11022e-16
1.66533e-16
0
3.33067e-16
0
1.11022e-16
0
3.33067e-16
2.22045e-16
4.44089e-16
2.22045e-16
2.22045e-16
2.22045e-16
2.22045e-16
5.55112e-16
-2.22045e-16
1.11022e-16
0
3.33067e-16
1.11022e-16
0
-1.11022e-16
3.33067e-16
2.22045e-16
3.33067e-16
-2.22045e-16
5.55112e-16
-4.44089e-16
0
-5.55112e-16
4.44089e-16
-1.11022e-16
0
-3.33067e-16
0
0
3.33067e-16
0
0
-2.22045e-16
-3.33067e-16
-2.22045e-16
1.11022e-16
0
2.22045e-16
-4.44089e-16
0
-2.22045e-16
4.44089e-16
0
3.33067e-16
-5.55112e-16
2.22045e-16
-3.33067e-16
0
-5.55112e-16
-5.55112e-16
-5.55112e-16
-1.11022e-16
0
-4.44089e-16
-4.44089e-16
-5.55112e-16
-3.33067e-16
-1.11022e-16
-1.11022e-16
-1.11022e-16
-1.11022e-16
-3.33067e-16
-3.33067e-16
0
1.11022e-16
0
0
-1.11022e-16
-2.22045e-16
-2.22045e-16
-4.44089e-16
0
0
0
2.22045e-16
1.11022e-16
-2.22045e-16
2.22045e-16
-5.55112e-16
1.11022e-16
-4.44089e-16
-1.11022e-16
-1.11022e-16
-2.22045e-16
-2.22045e-16
-2.22045e-16
-3.33067e-16
1.11022e-13
0
4.69883e-10
4.44089e-16
2.16894e-07
3.25184e-13
1.51975e-05
3.09295e-11
0.000248337
6.71002e-10
0.00149421
5.11635e-09
0.0048728
2.01418e-08
0.0110884
5.32651e-08
0.0202843
1.09788e-07
0.0322206
1.91505e-07
0.0464493
2.97043e-07
0.0624478
4.23044e-07
0.0797086
5.65329e-07
0.0977853
7.19701e-07
0.116309
8.82382e-07
0.134989
1.05025e-06
0.153601
1.22087e-06
0.171973
1.39239e-06
0.189975
1.56342e-06
0.207508
1.7329e-06
0.224493
1.89933e-06
0.240855
2.0658e-06
0.256515
2.23605e-06
0.271372
2.41364e-06
0.285284
2.59041e-06
0.298057
2.76411e-06
0.309433
2.95753e-06
0.319118
3.18186e-06
0.326844
3.43206e-06
0.332482
3.7025e-06
0.336133
3.98444e-06
0.338148
4.25865e-06
0.339001
4.46493e-06
0.339283
4.64486e-06
0.339251
4.81369e-06
0.338737
4.6466e-06
0.338142
4.5566e-06
0.337703
4.57469e-06
0.337403
4.63463e-06
0.337201
4.58607e-06
0.33705
4.61154e-06
0.336897
4.3767e-06
0.336717
4.69143e-06
0.336538
4.29478e-06
0.336405
4.33414e-06
0.336308
4.66714e-06
0.336203
3.35052e-06
0.33604
5.02409e-06
0.335826
3.58182e-06
0.335638
4.1176e-06
0.335512
3.80912e-06
0.335407
4.83944e-06
0.335262
1.4513e-06
0.335045
4.01096e-06
0.334829
3.32435e-06
0.334674
2.62332e-06
0.334542
2.29477e-06
0.33436
1.41736e-06
0.334062
1.18979e-06
0.333674
-4.01628e-07
0.33364
-9.43917e-07
0.33453
-1.74513e-06
0.337087
-3.37464e-06
0.344246
-5.2222e-06
0.360479
-7.41199e-06
0.392326
-9.33924e-06
0.447687
-1.13035e-05
0.530785
-1.40754e-05
0.63143
-1.6866e-05
0.717735
-1.86198e-05
0.766251
-1.67728e-05
0.778727
-1.05193e-05
0.779216
-8.49643e-06
0.778438
-8.02345e-06
0.776671
-7.46439e-06
0.774013
-6.84626e-06
0.771518
-6.40334e-06
0.769453
-6.1622e-06
0.767481
-5.93919e-06
0.765971
-5.74788e-06
0.765
-5.60054e-06
0.76424
-5.45952e-06
0.763005
-5.31635e-06
0.759503
-5.15673e-06
0.748585
-4.96814e-06
0.715891
-4.73289e-06
0.624295
-4.24716e-06
0.410783
-3.15917e-06
0.126983
-1.48549e-06
0.00920089
-2.78712e-07
9.30256e-05
-1.30184e-08
8.99009e-08
-9.32057e-11
6.94017e-12
-6.60583e-14
8.32667e-16
-4.44089e-16
1.11022e-16
-5.55112e-17
-1.11022e-16
-3.88578e-16
-1.66533e-16
-4.44089e-16
-2.77556e-16
-3.33067e-16
3.88578e-16
-2.22045e-16
5.55112e-17
-5.55112e-16
5.55112e-17
-3.33067e-16
-2.22045e-16
-4.996e-16
2.22045e-16
-2.77556e-16
2.22045e-16
-5.55112e-16
-1.11022e-16
-6.10623e-16
-2.22045e-16
-6.10623e-16
1.11022e-16
-4.44089e-16
-5.55112e-17
-9.4369e-16
-1.11022e-16
-9.99201e-16
-2.77556e-16
-9.4369e-16
2.77556e-16
-7.77156e-16
-5.55112e-17
-8.88178e-16
-1.66533e-16
-7.21645e-16
-5.55112e-17
-7.21645e-16
-5.55112e-17
-5.55112e-16
2.22045e-16
-7.21645e-16
5.55112e-17
-8.32667e-16
5.55112e-17
-7.21645e-16
-5.55112e-17
-4.44089e-16
-3.33067e-16
-3.33067e-16
6.66134e-16
0
3.33067e-16
0
4.44089e-16
-1.11022e-16
0
2.22045e-16
0
2.22045e-16
3.33067e-16
4.44089e-16
2.22045e-16
3.33067e-16
-3.33067e-16
0
-4.44089e-16
5.55112e-16
0
0
-1.11022e-16
2.22045e-16
0
3.33067e-16
2.22045e-16
2.22045e-16
-3.33067e-16
1.11022e-16
1.11022e-16
3.33067e-16
2.22045e-16
2.22045e-16
0
-1.11022e-16
2.22045e-16
0
1.11022e-16
-1.11022e-16
0
0
1.11022e-16
2.22045e-16
1.11022e-16
2.22045e-16
-2.22045e-16
0
-4.44089e-16
3.33067e-16
-1.11022e-16
3.33067e-16
2.22045e-16
1.11022e-16
-1.11022e-16
-1.11022e-16
1.11022e-16
-3.33067e-16
1.11022e-16
-5.55112e-16
0
-4.44089e-16
0
-3.33067e-16
4.44089e-16
-3.33067e-16
5.55112e-16
-2.22045e-16
2.22045e-16
0
-2.22045e-16
-1.11022e-16
-2.22045e-16
1.11022e-16
-1.11022e-16
2.22045e-16
-1.11022e-16
0
-1.11022e-16
-2.22045e-16
-1.11022e-16
1.11022e-16
1.11022e-16
3.33067e-16
0
3.33067e-16
0
3.33067e-16
2.22045e-16
-4.44089e-16
-2.22045e-16
-2.22045e-16
1.11022e-16
1.11022e-13
1.11022e-16
4.699e-10
6.66134e-16
2.169e-07
2.50577e-13
1.51978e-05
2.41523e-11
0.00024834
5.31791e-10
0.00149423
4.12291e-09
0.00487283
1.65065e-08
0.0110885
4.43559e-08
0.0202843
9.28047e-08
0.0322207
1.64158e-07
0.0464494
2.57892e-07
0.0624479
3.71464e-07
0.0797088
5.01321e-07
0.0977854
6.43692e-07
0.116309
7.95062e-07
0.13499
9.52445e-07
0.153601
1.11342e-06
0.171973
1.27608e-06
0.189975
1.43896e-06
0.207508
1.60106e-06
0.224493
1.76161e-06
0.240855
1.92191e-06
0.256515
2.08541e-06
0.271372
2.25488e-06
0.285284
2.43114e-06
0.298057
2.61024e-06
0.309433
2.8005e-06
0.319118
3.01578e-06
0.326845
3.25846e-06
0.332482
3.52094e-06
0.336133
3.79075e-06
0.338148
4.0496e-06
0.339001
4.25629e-06
0.339283
4.43632e-06
0.339251
4.54796e-06
0.338736
4.53501e-06
0.338142
4.45776e-06
0.337703
4.41965e-06
0.337403
4.44151e-06
0.337201
4.41006e-06
0.33705
4.43401e-06
0.336897
4.19902e-06
0.336717
4.44856e-06
0.336538
4.16624e-06
0.336404
4.15621e-06
0.336308
4.38068e-06
0.336203
3.37152e-06
0.33604
4.58725e-06
0.335826
3.3727e-06
0.335638
3.84727e-06
0.335512
3.35464e-06
0.335407
4.57663e-06
0.335261
9.83306e-07
0.335045
3.63896e-06
0.334828
2.89491e-06
0.334674
2.16229e-06
0.334541
1.79883e-06
0.334359
9.00314e-07
0.334061
7.74748e-07
0.333673
-8.06778e-07
0.333639
-1.17168e-06
0.334529
-1.95876e-06
0.337086
-3.16071e-06
0.344245
-4.9364e-06
0.360477
-6.63863e-06
0.392323
-8.20057e-06
0.447682
-9.85714e-06
0.530779
-1.20189e-05
0.631424
-1.39744e-05
0.717732
-1.51522e-05
0.766252
-1.4167e-05
0.778728
-9.99294e-06
0.779217
-8.50115e-06
0.778439
-8.05594e-06
0.776672
-7.48343e-06
0.774013
-6.83486e-06
0.771517
-6.29835e-06
0.769453
-5.9968e-06
0.76748
-5.79521e-06
0.765971
-5.61022e-06
0.765
-5.44429e-06
0.76424
-5.28432e-06
0.763005
-5.13177e-06
0.759503
-4.96997e-06
0.748585
-4.78692e-06
0.715891
-4.54495e-06
0.624296
-4.06757e-06
0.410785
-3.04911e-06
0.126985
-1.43042e-06
0.00920109
-2.67369e-07
9.30289e-05
-1.24609e-08
8.99054e-08
-8.92786e-11
6.94078e-12
-6.35048e-14
8.88178e-16
-4.996e-16
-1.11022e-16
-3.33067e-16
-5.55112e-17
-4.44089e-16
-5.55112e-17
-5.55112e-16
-1.11022e-16
-2.22045e-16
-1.11022e-16
-3.33067e-16
2.22045e-16
-1.11022e-16
-5.55112e-17
-1.66533e-16
-1.11022e-16
-2.22045e-16
-5.55112e-17
-3.88578e-16
5.55112e-17
-2.77556e-16
0
-2.22045e-16
-2.22045e-16
-4.44089e-16
-4.44089e-16
-7.21645e-16
0
-6.10623e-16
-2.22045e-16
-9.4369e-16
-3.33067e-16
-9.4369e-16
1.66533e-16
-4.44089e-16
2.22045e-16
-3.88578e-16
-1.66533e-16
-5.55112e-16
1.66533e-16
-3.88578e-16
-1.11022e-16
-6.10623e-16
3.33067e-16
-3.88578e-16
2.77556e-16
-7.77156e-16
2.77556e-16
-5.55112e-16
1.11022e-16
-4.996e-16
-5.55112e-16
-4.44089e-16
3.33067e-16
1.11022e-16
2.22045e-16
-3.33067e-16
0
1.11022e-16
3.33067e-16
1.11022e-16
0
2.22045e-16
0
0
0
4.44089e-16
2.22045e-16
4.44089e-16
0
0
-2.22045e-16
2.22045e-16
0
1.11022e-16
-5.55112e-16
-1.11022e-16
1.11022e-16
4.44089e-16
-1.11022e-16
4.44089e-16
0
2.22045e-16
1.11022e-16
1.11022e-16
-1.11022e-16
0
1.11022e-16
0
-2.22045e-16
-1.11022e-16
-4.44089e-16
0
-1.11022e-16
0
-2.22045e-16
1.11022e-16
0
3.33067e-16
-2.22045e-16
2.22045e-16
-3.33067e-16
1.11022e-16
-1.11022e-16
0
-1.11022e-16
-1.11022e-16
-1.11022e-16
-3.33067e-16
0
-4.44089e-16
-2.22045e-16
-2.22045e-16
-1.11022e-16
0
0
-2.22045e-16
0
-4.44089e-16
2.22045e-16
0
1.11022e-16
-1.11022e-16
0
-1.11022e-16
0
2.22045e-16
0
0
-3.33067e-16
0
-1.11022e-16
-1.11022e-16
1.11022e-16
2.22045e-16
3.33067e-16
2.22045e-16
2.22045e-16
-3.33067e-16
0
-3.33067e-16
3.33067e-16
-5.55112e-16
-2.22045e-16
1.11022e-13
3.33067e-16
4.69914e-10
1.11022e-16
2.16905e-07
1.84186e-13
1.5198e-05
1.81106e-11
0.000248343
4.05963e-10
0.00149424
3.21619e-09
0.00487286
1.31716e-08
0.0110885
3.61553e-08
0.0202844
7.70926e-08
0.0322208
1.38658e-07
0.0464495
2.2105e-07
0.062448
3.22517e-07
0.0797089
4.40159e-07
0.0977855
5.70671e-07
0.116309
7.10832e-07
0.13499
8.57794e-07
0.153602
1.00917e-06
0.171973
1.16302e-06
0.189975
1.31785e-06
0.207508
1.47256e-06
0.224493
1.62672e-06
0.240855
1.78086e-06
0.256515
1.93747e-06
0.271372
2.09982e-06
0.285285
2.27069e-06
0.298057
2.45045e-06
0.309433
2.64078e-06
0.319118
2.85027e-06
0.326845
3.08416e-06
0.332482
3.33731e-06
0.336133
3.59597e-06
0.338148
3.83945e-06
0.339001
4.04293e-06
0.339283
4.21694e-06
0.339251
4.33767e-06
0.338736
4.38145e-06
0.338142
4.33301e-06
0.337703
4.27786e-06
0.337403
4.26475e-06
0.337201
4.22758e-06
0.33705
4.25092e-06
0.336897
4.04939e-06
0.336717
4.17677e-06
0.336538
4.02295e-06
0.336404
3.96838e-06
0.336308
4.07991e-06
0.336203
3.38611e-06
0.336039
4.1882e-06
0.335826
3.19879e-06
0.335638
3.51864e-06
0.335511
2.98242e-06
0.335406
4.30979e-06
0.335261
5.99982e-07
0.335045
3.32011e-06
0.334828
2.55704e-06
0.334673
1.72383e-06
0.334541
1.31997e-06
0.334358
4.50675e-07
0.33406
3.92282e-07
0.333672
-1.1544e-06
0.333638
-1.39304e-06
0.334528
-2.16351e-06
0.337085
-3.05224e-06
0.344244
-4.62533e-06
0.360476
-5.996e-06
0.392322
-7.33334e-06
0.447681
-8.42359e-06
0.530778
-9.87929e-06
0.631424
-1.1223e-05
0.717732
-1.21595e-05
0.766253
-1.17895e-05
0.778729
-9.13119e-06
0.779219
-8.09216e-06
0.77844
-7.69842e-06
0.776672
-7.22617e-06
0.774014
-6.67406e-06
0.771518
-6.14788e-06
0.769453
-5.85644e-06
0.76748
-5.65626e-06
0.765971
-5.4652e-06
0.765
-5.29114e-06
0.76424
-5.12952e-06
0.763005
-4.97449e-06
0.759504
-4.81309e-06
0.748585
-4.63014e-06
0.715892
-4.37372e-06
0.624297
-3.89267e-06
0.410787
-2.89765e-06
0.126986
-1.35189e-06
0.00920129
-2.51785e-07
9.30321e-05
-1.17131e-08
8.99098e-08
-8.38749e-11
6.94156e-12
-5.96745e-14
7.77156e-16
-4.996e-16
-2.22045e-16
-5.55112e-16
-3.88578e-16
-6.66134e-16
5.55112e-17
-3.88578e-16
0
-3.33067e-16
1.11022e-16
-5.55112e-17
1.11022e-16
-5.55112e-17
-5.55112e-17
-1.11022e-16
-1.11022e-16
-2.77556e-16
0
-4.996e-16
-5.55112e-17
-5.55112e-16
-1.11022e-16
-1.11022e-16
-3.33067e-16
-1.11022e-16
-1.11022e-16
-3.88578e-16
-3.33067e-16
-6.10623e-16
-2.22045e-16
-3.33067e-16
0
-2.77556e-16
1.11022e-16
-3.33067e-16
5.55112e-17
-4.996e-16
0
-4.44089e-16
0
-3.88578e-16
1.11022e-16
-3.33067e-16
0
-4.996e-16
3.33067e-16
-5.55112e-16
3.33067e-16
-4.44089e-16
5.55112e-17
-5.55112e-16
-1.66533e-16
-3.33067e-16
1.11022e-16
-2.22045e-16
2.22045e-16
1.11022e-16
1.11022e-16
-3.33067e-16
0
3.33067e-16
0
5.55112e-16
4.44089e-16
0
0
1.11022e-16
0
3.33067e-16
4.44089e-16
4.44089e-16
2.22045e-16
2.22045e-16
1.11022e-16
6.66134e-16
1.11022e-16
-2.22045e-16
-1.11022e-16
4.44089e-16
0
4.44089e-16
0
3.33067e-16
0
0
-4.44089e-16
-1.11022e-16
-4.44089e-16
-1.11022e-16
-6.66134e-16
1.11022e-16
-5.55112e-16
1.11022e-16
-7.77156e-16
1.11022e-16
-5.55112e-16
0
-4.44089e-16
4.44089e-16
-2.22045e-16
3.33067e-16
-2.22045e-16
2.22045e-16
-5.55112e-16
1.11022e-16
-4.44089e-16
-2.22045e-16
-3.33067e-16
-2.22045e-16
0
0
1.11022e-16
-4.44089e-16
0
0
0
0
0
-6.66134e-16
-2.22045e-16
-3.33067e-16
4.44089e-16
0
3.33067e-16
0
-1.11022e-16
0
-1.11022e-16
1.11022e-16
1.11022e-16
2.22045e-16
0
2.22045e-16
1.11022e-16
1.11022e-16
0
-2.22045e-16
0
1.11022e-16
1.11022e-16
-2.22045e-16
2.22045e-16
-2.22045e-16
3.33067e-16
1.11355e-13
3.33067e-16
4.69923e-10
2.22045e-16
2.16908e-07
1.28897e-13
1.51982e-05
1.29605e-11
0.000248345
2.97618e-10
0.00149425
2.42479e-09
0.00487288
1.02181e-08
0.0110886
2.87882e-08
0.0202845
6.27795e-08
0.0322209
1.1511e-07
0.0464496
1.86596e-07
0.0624481
2.76236e-07
0.079709
3.81812e-07
0.0977857
5.00522e-07
0.116309
6.29461e-07
0.13499
7.65955e-07
0.153602
9.07679e-07
0.171973
1.0527e-06
0.189975
1.19948e-06
0.207509
1.34692e-06
0.224493
1.49448e-06
0.240855
1.64244e-06
0.256515
1.79255e-06
0.271372
1.94797e-06
0.285285
2.11231e-06
0.298058
2.28839e-06
0.309434
2.47776e-06
0.319118
2.68416e-06
0.326845
2.91125e-06
0.332483
3.15552e-06
0.336133
3.40407e-06
0.338148
3.6374e-06
0.339001
3.83608e-06
0.339283
4.00702e-06
0.339251
4.14795e-06
0.338736
4.2064e-06
0.338142
4.1784e-06
0.337703
4.13098e-06
0.337403
4.10395e-06
0.337201
4.05922e-06
0.33705
4.06547e-06
0.336897
3.91656e-06
0.336717
3.92297e-06
0.336538
3.87159e-06
0.336404
3.77257e-06
0.336308
3.80077e-06
0.336203
3.33863e-06
0.336039
3.86033e-06
0.335826
3.03395e-06
0.335638
3.21707e-06
0.335511
2.67718e-06
0.335406
4.0355e-06
0.335261
2.40581e-07
0.335044
3.06187e-06
0.334827
2.30541e-06
0.334673
1.39672e-06
0.33454
9.68074e-07
0.334357
1.40709e-07
0.334059
9.58911e-08
0.333671
-1.37746e-06
0.333637
-1.56736e-06
0.334527
-2.29293e-06
0.337084
-3.04132e-06
0.344243
-4.3254e-06
0.360475
-5.40612e-06
0.392321
-6.46663e-06
0.447681
-7.26105e-06
0.530778
-8.28197e-06
0.631425
-9.15354e-06
0.717733
-9.71497e-06
0.766255
-9.62002e-06
0.778731
-8.07549e-06
0.77922
-7.46938e-06
0.778441
-7.15761e-06
0.776673
-6.79139e-06
0.774014
-6.35836e-06
0.771518
-5.92153e-06
0.769453
-5.6705e-06
0.767481
-5.48098e-06
0.765971
-5.29109e-06
0.765001
-5.11139e-06
0.76424
-4.94947e-06
0.763005
-4.79555e-06
0.759504
-4.63261e-06
0.748586
-4.44194e-06
0.715892
-4.17493e-06
0.624298
-3.69364e-06
0.410789
-2.73112e-06
0.126987
-1.26699e-06
0.00920147
-2.34844e-07
9.3035e-05
-1.08865e-08
8.99138e-08
-7.77802e-11
6.94178e-12
-5.58997e-14
5.55112e-16
-5.55112e-17
-1.11022e-16
-6.66134e-16
5.55112e-17
-6.10623e-16
2.22045e-16
-3.33067e-16
1.66533e-16
-2.77556e-16
1.11022e-16
-5.55112e-17
5.55112e-17
-1.11022e-16
-3.88578e-16
-3.33067e-16
-2.22045e-16
1.11022e-16
1.66533e-16
-3.88578e-16
4.996e-16
1.11022e-16
-1.66533e-16
-1.66533e-16
-5.55112e-16
-1.11022e-16
-5.55112e-16
-2.77556e-16
-5.55112e-17
5.55112e-17
5.55112e-17
-1.66533e-16
1.66533e-16
-1.66533e-16
-5.55112e-17
-2.22045e-16
3.88578e-16
-1.11022e-16
0
-7.21645e-16
-5.55112e-17
-7.21645e-16
0
-9.4369e-16
1.11022e-16
-7.77156e-16
4.996e-16
-4.996e-16
1.66533e-16
-6.66134e-16
3.88578e-16
-4.44089e-16
-4.44089e-16
-2.22045e-16
0
-4.44089e-16
1.11022e-16
-1.11022e-16
2.22045e-16
-1.11022e-16
1.11022e-16
4.44089e-16
2.22045e-16
2.22045e-16
2.22045e-16
1.11022e-16
-1.11022e-16
5.55112e-16
3.33067e-16
1.11022e-16
1.11022e-16
1.11022e-16
1.11022e-16
2.22045e-16
2.22045e-16
3.33067e-16
3.33067e-16
0
-2.22045e-16
-1.11022e-16
-2.22045e-16
2.22045e-16
-2.22045e-16
5.55112e-16
-4.44089e-16
0
-6.66134e-16
-3.33067e-16
-6.66134e-16
2.22045e-16
-3.33067e-16
-2.22045e-16
-7.77156e-16
3.33067e-16
-3.33067e-16
4.44089e-16
-5.55112e-16
0
-6.66134e-16
5.55112e-16
-2.22045e-16
0
-3.33067e-16
4.44089e-16
0
4.44089e-16
0
1.11022e-16
-4.44089e-16
0
-1.11022e-16
-2.22045e-16
-2.22045e-16
-4.44089e-16
-1.11022e-16
2.22045e-16
2.22045e-16
-5.55112e-16
-1.11022e-16
-1.11022e-16
2.22045e-16
1.11022e-16
1.11022e-16
-6.66134e-16
-1.11022e-16
0
0
0
1.11022e-16
2.22045e-16
0
-1.11022e-16
1.11022e-16
1.11022e-16
3.33067e-16
2.22045e-16
4.44089e-16
3.33067e-16
4.44089e-16
4.44089e-16
0
-5.55112e-16
-3.33067e-16
-3.33067e-16
1.11022e-16
1.11688e-13
-4.44089e-16
4.6993e-10
3.33067e-16
2.16911e-07
8.50431e-14
1.51983e-05
8.74933e-12
0.000248347
2.07943e-10
0.00149425
1.75934e-09
0.0048729
7.68939e-09
0.0110886
2.23635e-08
0.0202845
5.00754e-08
0.032221
9.3857e-08
0.0464497
1.55003e-07
0.0624483
2.33178e-07
0.0797091
3.26831e-07
0.0977858
4.33707e-07
0.11631
5.51282e-07
0.13499
6.77106e-07
0.153602
8.08967e-07
0.171973
9.4496e-07
0.189975
1.08355e-06
0.207509
1.22357e-06
0.224493
1.36437e-06
0.240855
1.50603e-06
0.256515
1.6498e-06
0.271372
1.7984e-06
0.285285
1.95568e-06
0.298058
2.12566e-06
0.309434
2.31127e-06
0.319118
2.51456e-06
0.326845
2.73675e-06
0.332483
2.97412e-06
0.336134
3.21546e-06
0.338148
3.44187e-06
0.339001
3.63612e-06
0.339283
3.80976e-06
0.339251
3.95878e-06
0.338736
4.02423e-06
0.338142
4.01986e-06
0.337703
3.97812e-06
0.337403
3.94555e-06
0.337201
3.8972e-06
0.33705
3.8877e-06
0.336897
3.78043e-06
0.336716
3.69906e-06
0.336538
3.71032e-06
0.336404
3.57796e-06
0.336308
3.5612e-06
0.336203
3.21995e-06
0.336039
3.5986e-06
0.335826
2.86788e-06
0.335638
2.9572e-06
0.335511
2.42437e-06
0.335406
3.78157e-06
0.33526
-6.78346e-08
0.335044
2.80797e-06
0.334827
2.08199e-06
0.334673
1.1579e-06
0.33454
7.34692e-07
0.334357
-3.25363e-08
0.334059
-9.44523e-08
0.33367
-1.45569e-06
0.333636
-1.63087e-06
0.334526
-2.27177e-06
0.337082
-2.9027e-06
0.344242
-3.97051e-06
0.360474
-4.83967e-06
0.392321
-5.60953e-06
0.44768
-6.15593e-06
0.530778
-6.86413e-06
0.631425
-7.42249e-06
0.717734
-7.82409e-06
0.766256
-7.96085e-06
0.778732
-7.1735e-06
0.779221
-6.79032e-06
0.778442
-6.55689e-06
0.776674
-6.28874e-06
0.774015
-5.97139e-06
0.771518
-5.6344e-06
0.769454
-5.4304e-06
0.767481
-5.25484e-06
0.765971
-5.06348e-06
0.765001
-4.88054e-06
0.764241
-4.7192e-06
0.763005
-4.56836e-06
0.759504
-4.40687e-06
0.748586
-4.21391e-06
0.715893
-3.94534e-06
0.624299
-3.47461e-06
0.41079
-2.55685e-06
0.126989
-1.18049e-06
0.00920164
-2.17867e-07
9.30377e-05
-1.00645e-08
8.99176e-08
-7.17199e-11
6.94167e-12
-5.15143e-14
6.66134e-16
-1.66533e-16
1.66533e-16
-5.55112e-17
2.77556e-16
0
5.55112e-17
-2.77556e-16
4.44089e-16
1.66533e-16
1.66533e-16
-1.66533e-16
-2.77556e-16
-3.33067e-16
-2.22045e-16
-2.22045e-16
-4.44089e-16
-1.66533e-16
2.77556e-16
-1.66533e-16
1.11022e-16
-1.66533e-16
-1.66533e-16
-1.66533e-16
-5.55112e-16
-1.66533e-16
-1.66533e-16
0
-2.77556e-16
2.77556e-16
-1.11022e-16
1.11022e-16
-1.66533e-16
5.55112e-17
-1.11022e-16
-5.55112e-17
-2.22045e-16
-1.66533e-16
5.55112e-17
-2.22045e-16
-2.77556e-16
-6.10623e-16
5.55112e-17
-5.55112e-16
2.77556e-16
-3.33067e-16
3.88578e-16
-2.77556e-16
3.33067e-16
-2.77556e-16
3.88578e-16
-4.44089e-16
-4.996e-16
1.11022e-16
0
-2.22045e-16
2.22045e-16
-1.11022e-16
3.33067e-16
0
3.33067e-16
2.22045e-16
3.33067e-16
2.22045e-16
3.33067e-16
1.11022e-16
3.33067e-16
4.44089e-16
1.11022e-16
0
-1.11022e-16
1.11022e-16
-2.22045e-16
2.22045e-16
5.55112e-16
1.11022e-16
3.33067e-16
0
0
0
0
0
-1.11022e-16
0
-2.22045e-16
-1.11022e-16
0
-1.11022e-16
0
0
-3.33067e-16
3.33067e-16
-4.44089e-16
0
-4.44089e-16
2.22045e-16
-3.33067e-16
2.22045e-16
-4.44089e-16
1.11022e-16
-2.22045e-16
2.22045e-16
-4.44089e-16
2.22045e-16
-3.33067e-16
0
-3.33067e-16
2.22045e-16
-2.22045e-16
-1.11022e-16
-2.22045e-16
-1.11022e-16