/*--------------------------------*- C++ -*----------------------------------*\
  =========                 |
  \\      /  F ield         | OpenFOAM: The Open Source CFD Toolbox
   \\    /   O peration     | Website:  https://openfoam.org
    \\  /    A nd           | Version:  13
     \\/     M anipulation  |
\*---------------------------------------------------------------------------*/
FoamFile
{
    format      ascii;
    class       volScalarField;
    location    "0.0007";
    object      Qdot;
}
// * * * * * * * * * * * * * * * * * * * * * * * * * * * * * * * * * * * * * //

dimensions      [1 -1 -3 0 0 0 0];

internalField   nonuniform List<scalar> 
33334
(
1.78439e+08
1.78439e+08
1.78439e+08
1.78439e+08
1.78439e+08
1.78439e+08
1.78439e+08
1.78439e+08
1.78439e+08
1.78439e+08
1.78439e+08
1.78439e+08
1.78439e+08
1.78439e+08
1.78439e+08
1.78439e+08
1.78439e+08
1.78439e+08
1.78439e+08
1.78439e+08
1.78439e+08
1.78439e+08
1.78439e+08
1.78439e+08
1.78439e+08
1.78439e+08
1.78439e+08
1.78439e+08
1.78439e+08
1.78439e+08
1.78439e+08
1.78439e+08
1.78439e+08
1.78439e+08
1.78439e+08
1.78439e+08
1.78439e+08
1.78439e+08
1.78439e+08
1.78439e+08
1.78439e+08
1.78439e+08
1.78439e+08
1.78439e+08
1.78439e+08
1.78439e+08
1.78439e+08
1.78439e+08
1.78439e+08
1.78437e+08
1.78378e+08
1.77896e+08
1.76124e+08
1.72194e+08
1.65738e+08
1.56904e+08
1.46184e+08
1.34224e+08
1.21671e+08
1.09083e+08
9.68832e+07
8.53728e+07
7.47284e+07
6.5042e+07
5.63407e+07
4.86058e+07
4.17911e+07
3.58342e+07
3.06668e+07
2.62206e+07
2.24322e+07
1.92457e+07
1.6613e+07
1.44914e+07
1.28391e+07
1.16082e+07
1.07387e+07
1.0157e+07
9.78104e+06
9.52633e+06
9.33588e+06
9.19853e+06
9.10702e+06
9.0173e+06
8.91347e+06
8.79649e+06
8.6728e+06
8.54905e+06
8.43002e+06
8.31619e+06
8.2035e+06
8.08914e+06
7.97491e+06
7.86551e+06
7.76495e+06
7.67002e+06
7.57418e+06
7.47543e+06
7.37652e+06
7.2818e+06
7.19189e+06
7.10382e+06
7.0235e+06
6.95862e+06
6.9015e+06
6.85236e+06
6.77444e+06
6.53934e+06
5.92238e+06
4.66921e+06
2.70815e+06
918413
131017
5724.64
79.7198
0.88799
0.0365608
0.00981781
0.00725896
0.00716974
0.00729593
0.00765881
0.0081361
0.0083339
0.00829953
0.00817854
0.00802627
0.00784848
0.00768772
0.00745683
0.00695206
0.00562983
0.00300179
0.000542665
1.25863e-05
2.84464e-07
1.15342e-07
1.11247e-07
1.11225e-07
1.11225e-07
1.11225e-07
1.11225e-07
1.11225e-07
1.11225e-07
1.11225e-07
1.11225e-07
1.11225e-07
1.11225e-07
1.11225e-07
1.11225e-07
1.11225e-07
1.11225e-07
1.11225e-07
1.11225e-07
1.11225e-07
1.11225e-07
1.11225e-07
1.11225e-07
1.11225e-07
1.11225e-07
1.11225e-07
1.11225e-07
1.11225e-07
1.11225e-07
1.11225e-07
1.11225e-07
1.78439e+08
1.78439e+08
1.78439e+08
1.78439e+08
1.78439e+08
1.78439e+08
1.78439e+08
1.78439e+08
1.78439e+08
1.78439e+08
1.78439e+08
1.78439e+08
1.78439e+08
1.78439e+08
1.78439e+08
1.78439e+08
1.78439e+08
1.78439e+08
1.78439e+08
1.78439e+08
1.78439e+08
1.78439e+08
1.78439e+08
1.78439e+08
1.78439e+08
1.78439e+08
1.78439e+08
1.78439e+08
1.78439e+08
1.78439e+08
1.78439e+08
1.78439e+08
1.78439e+08
1.78439e+08
1.78439e+08
1.78439e+08
1.78439e+08
1.78439e+08
1.78439e+08
1.78439e+08
1.78439e+08
1.78439e+08
1.78439e+08
1.78439e+08
1.78439e+08
1.78439e+08
1.78439e+08
1.78439e+08
1.78439e+08
1.78437e+08
1.78378e+08
1.77896e+08
1.76124e+08
1.72194e+08
1.65738e+08
1.56904e+08
1.46184e+08
1.34224e+08
1.21671e+08
1.09083e+08
9.68831e+07
8.53727e+07
7.47283e+07
6.50419e+07
5.63405e+07
4.86057e+07
4.17909e+07
3.58341e+07
3.06666e+07
2.62204e+07
2.24321e+07
1.92456e+07
1.66128e+07
1.44912e+07
1.28389e+07
1.16081e+07
1.07386e+07
1.01569e+07
9.78086e+06
9.52612e+06
9.33582e+06
9.19835e+06
9.10682e+06
9.01714e+06
8.91331e+06
8.79632e+06
8.67263e+06
8.54888e+06
8.42985e+06
8.31602e+06
8.20333e+06
8.08898e+06
7.97473e+06
7.86535e+06
7.76478e+06
7.66984e+06
7.57402e+06
7.47528e+06
7.37635e+06
7.28164e+06
7.19174e+06
7.10366e+06
7.02334e+06
6.95845e+06
6.90131e+06
6.85219e+06
6.77429e+06
6.53933e+06
5.92269e+06
4.66989e+06
2.70899e+06
918900
131120
5730.33
79.7991
0.888635
0.0365722
0.00981811
0.00725851
0.00716927
0.00729541
0.00765825
0.00813558
0.00833341
0.00829907
0.00817812
0.00802588
0.00784811
0.00768742
0.00745657
0.00695186
0.0056297
0.00300176
0.000542672
1.25868e-05
2.84469e-07
1.15342e-07
1.11247e-07
1.11225e-07
1.11225e-07
1.11225e-07
1.11225e-07
1.11225e-07
1.11225e-07
1.11225e-07
1.11225e-07
1.11225e-07
1.11225e-07
1.11225e-07
1.11225e-07
1.11225e-07
1.11225e-07
1.11225e-07
1.11225e-07
1.11225e-07
1.11225e-07
1.11225e-07
1.11225e-07
1.11225e-07
1.11225e-07
1.11225e-07
1.11225e-07
1.11225e-07
1.11225e-07
1.11225e-07
1.11225e-07
1.78439e+08
1.78439e+08
1.78439e+08
1.78439e+08
1.78439e+08
1.78439e+08
1.78439e+08
1.78439e+08
1.78439e+08
1.78439e+08
1.78439e+08
1.78439e+08
1.78439e+08
1.78439e+08
1.78439e+08
1.78439e+08
1.78439e+08
1.78439e+08
1.78439e+08
1.78439e+08
1.78439e+08
1.78439e+08
1.78439e+08
1.78439e+08
1.78439e+08
1.78439e+08
1.78439e+08
1.78439e+08
1.78439e+08
1.78439e+08
1.78439e+08
1.78439e+08
1.78439e+08
1.78439e+08
1.78439e+08
1.78439e+08
1.78439e+08
1.78439e+08
1.78439e+08
1.78439e+08
1.78439e+08
1.78439e+08
1.78439e+08
1.78439e+08
1.78439e+08
1.78439e+08
1.78439e+08
1.78439e+08
1.78439e+08
1.78437e+08
1.78378e+08
1.77896e+08
1.76124e+08
1.72194e+08
1.65738e+08
1.56904e+08
1.46184e+08
1.34224e+08
1.21671e+08
1.09082e+08
9.6883e+07
8.53726e+07
7.47281e+07
6.50418e+07
5.63404e+07
4.86056e+07
4.17908e+07
3.58339e+07
3.06665e+07
2.62203e+07
2.2432e+07
1.92455e+07
1.66127e+07
1.44911e+07
1.28388e+07
1.16079e+07
1.07384e+07
1.01567e+07
9.7807e+06
9.52596e+06
9.3357e+06
9.19819e+06
9.10663e+06
9.01696e+06
8.91311e+06
8.79612e+06
8.67243e+06
8.54867e+06
8.42964e+06
8.3158e+06
8.20311e+06
8.08875e+06
7.9745e+06
7.86513e+06
7.76455e+06
7.66962e+06
7.57379e+06
7.47504e+06
7.37612e+06
7.28142e+06
7.19151e+06
7.10343e+06
7.02309e+06
6.95819e+06
6.90105e+06
6.85192e+06
6.77409e+06
6.53924e+06
5.92285e+06
4.67044e+06
2.70978e+06
919421
131243
5737.75
79.913
0.889578
0.0365907
0.00981884
0.00725802
0.00716875
0.00729482
0.00765761
0.00813494
0.00833284
0.00829853
0.00817766
0.00802547
0.00784776
0.00768714
0.00745635
0.0069517
0.00562962
0.00300176
0.00054268
1.25872e-05
2.84473e-07
1.15342e-07
1.11247e-07
1.11225e-07
1.11225e-07
1.11225e-07
1.11225e-07
1.11225e-07
1.11225e-07
1.11225e-07
1.11225e-07
1.11225e-07
1.11225e-07
1.11225e-07
1.11225e-07
1.11225e-07
1.11225e-07
1.11225e-07
1.11225e-07
1.11225e-07
1.11225e-07
1.11225e-07
1.11225e-07
1.11225e-07
1.11225e-07
1.11225e-07
1.11225e-07
1.11225e-07
1.11225e-07
1.11225e-07
1.11225e-07
1.78439e+08
1.78439e+08
1.78439e+08
1.78439e+08
1.78439e+08
1.78439e+08
1.78439e+08
1.78439e+08
1.78439e+08
1.78439e+08
1.78439e+08
1.78439e+08
1.78439e+08
1.78439e+08
1.78439e+08
1.78439e+08
1.78439e+08
1.78439e+08
1.78439e+08
1.78439e+08
1.78439e+08
1.78439e+08
1.78439e+08
1.78439e+08
1.78439e+08
1.78439e+08
1.78439e+08
1.78439e+08
1.78439e+08
1.78439e+08
1.78439e+08
1.78439e+08
1.78439e+08
1.78439e+08
1.78439e+08
1.78439e+08
1.78439e+08
1.78439e+08
1.78439e+08
1.78439e+08
1.78439e+08
1.78439e+08
1.78439e+08
1.78439e+08
1.78439e+08
1.78439e+08
1.78439e+08
1.78439e+08
1.78439e+08
1.78437e+08
1.78378e+08
1.77896e+08
1.76124e+08
1.72194e+08
1.65738e+08
1.56904e+08
1.46184e+08
1.34224e+08
1.21671e+08
1.09082e+08
9.68829e+07
8.53725e+07
7.4728e+07
6.50417e+07
5.63403e+07
4.86055e+07
4.17907e+07
3.58338e+07
3.06664e+07
2.62202e+07
2.24319e+07
1.92454e+07
1.66126e+07
1.4491e+07
1.28387e+07
1.16079e+07
1.07384e+07
1.01566e+07
9.78062e+06
9.52588e+06
9.33563e+06
9.19814e+06
9.10654e+06
9.01685e+06
8.91302e+06
8.79602e+06
8.67232e+06
8.54856e+06
8.42952e+06
8.31568e+06
8.20299e+06
8.08863e+06
7.97436e+06
7.86499e+06
7.76439e+06
7.66948e+06
7.57364e+06
7.47489e+06
7.37595e+06
7.28127e+06
7.19135e+06
7.10327e+06
7.02293e+06
6.95801e+06
6.90086e+06
6.85175e+06
6.77394e+06
6.53915e+06
5.92294e+06
4.67076e+06
2.71024e+06
919729
131317
5742.35
79.9841
0.890198
0.0365802
0.00981947
0.00725777
0.00716847
0.0072945
0.00765727
0.00813462
0.00833258
0.00829829
0.00817745
0.00802532
0.00784766
0.00768707
0.00745631
0.00695169
0.00562963
0.00300178
0.000542691
1.25875e-05
2.84477e-07
1.15342e-07
1.11247e-07
1.11225e-07
1.11225e-07
1.11225e-07
1.11225e-07
1.11225e-07
1.11225e-07
1.11225e-07
1.11225e-07
1.11225e-07
1.11225e-07
1.11225e-07
1.11225e-07
1.11225e-07
1.11225e-07
1.11225e-07
1.11225e-07
1.11225e-07
1.11225e-07
1.11225e-07
1.11225e-07
1.11225e-07
1.11225e-07
1.11225e-07
1.11225e-07
1.11225e-07
1.11225e-07
1.11225e-07
1.11225e-07
1.78439e+08
1.78439e+08
1.78439e+08
1.78439e+08
1.78439e+08
1.78439e+08
1.78439e+08
1.78439e+08
1.78439e+08
1.78439e+08
1.78439e+08
1.78439e+08
1.78439e+08
1.78439e+08
1.78439e+08
1.78439e+08
1.78439e+08
1.78439e+08
1.78439e+08
1.78439e+08
1.78439e+08
1.78439e+08
1.78439e+08
1.78439e+08
1.78439e+08
1.78439e+08
1.78439e+08
1.78439e+08
1.78439e+08
1.78439e+08
1.78439e+08
1.78439e+08
1.78439e+08
1.78439e+08
1.78439e+08
1.78439e+08
1.78439e+08
1.78439e+08
1.78439e+08
1.78439e+08
1.78439e+08
1.78439e+08
1.78439e+08
1.78439e+08
1.78439e+08
1.78439e+08
1.78439e+08
1.78439e+08
1.78439e+08
1.78437e+08
1.78378e+08
1.77896e+08
1.76124e+08
1.72194e+08
1.65738e+08
1.56904e+08
1.46184e+08
1.34223e+08
1.21671e+08
1.09082e+08
9.68828e+07
8.53724e+07
7.47279e+07
6.50416e+07
5.63402e+07
4.86054e+07
4.17907e+07
3.58338e+07
3.06664e+07
2.62202e+07
2.24318e+07
1.92454e+07
1.66126e+07
1.4491e+07
1.28387e+07
1.16078e+07
1.07383e+07
1.01566e+07
9.78059e+06
9.52584e+06
9.33559e+06
9.19814e+06
9.10653e+06
9.01682e+06
8.91299e+06
8.79599e+06
8.67229e+06
8.54852e+06
8.42949e+06
8.31564e+06
8.20295e+06
8.08859e+06
7.97431e+06
7.86494e+06
7.76433e+06
7.66942e+06
7.57358e+06
7.47484e+06
7.37588e+06
7.2812e+06
7.19128e+06
7.1032e+06
7.02286e+06
6.95793e+06
6.90079e+06
6.85167e+06
6.77387e+06
6.5391e+06
5.92295e+06
4.67085e+06
2.71037e+06
919819
131339
5743.82
80.0084
0.890393
0.036585
0.00981979
0.00725771
0.00716841
0.00729443
0.00765718
0.00813453
0.00833251
0.00829823
0.00817741
0.0080253
0.00784766
0.00768707
0.00745632
0.00695171
0.00562965
0.00300181
0.000542701
1.25879e-05
2.84481e-07
1.15343e-07
1.11247e-07
1.11225e-07
1.11225e-07
1.11225e-07
1.11225e-07
1.11225e-07
1.11225e-07
1.11225e-07
1.11225e-07
1.11225e-07
1.11225e-07
1.11225e-07
1.11225e-07
1.11225e-07
1.11225e-07
1.11225e-07
1.11225e-07
1.11225e-07
1.11225e-07
1.11225e-07
1.11225e-07
1.11225e-07
1.11225e-07
1.11225e-07
1.11225e-07
1.11225e-07
1.11225e-07
1.11225e-07
1.11225e-07
1.78439e+08
1.78439e+08
1.78439e+08
1.78439e+08
1.78439e+08
1.78439e+08
1.78439e+08
1.78439e+08
1.78439e+08
1.78439e+08
1.78439e+08
1.78439e+08
1.78439e+08
1.78439e+08
1.78439e+08
1.78439e+08
1.78439e+08
1.78439e+08
1.78439e+08
1.78439e+08
1.78439e+08
1.78439e+08
1.78439e+08
1.78439e+08
1.78439e+08
1.78439e+08
1.78439e+08
1.78439e+08
1.78439e+08
1.78439e+08
1.78439e+08
1.78439e+08
1.78439e+08
1.78439e+08
1.78439e+08
1.78439e+08
1.78439e+08
1.78439e+08
1.78439e+08
1.78439e+08
1.78439e+08
1.78439e+08
1.78439e+08
1.78439e+08
1.78439e+08
1.78439e+08
1.78439e+08
1.78439e+08
1.78439e+08
1.78437e+08
1.78378e+08
1.77896e+08
1.76124e+08
1.72194e+08
1.65738e+08
1.56904e+08
1.46184e+08
1.34223e+08
1.2167e+08
1.09082e+08
9.68827e+07
8.53723e+07
7.47278e+07
6.50415e+07
5.63402e+07
4.86054e+07
4.17906e+07
3.58337e+07
3.06663e+07
2.62201e+07
2.24318e+07
1.92453e+07
1.66126e+07
1.4491e+07
1.28387e+07
1.16078e+07
1.07383e+07
1.01566e+07
9.78057e+06
9.52583e+06
9.33558e+06
9.19814e+06
9.10653e+06
9.01682e+06
8.91298e+06
8.79599e+06
8.67229e+06
8.54851e+06
8.42948e+06
8.31563e+06
8.20294e+06
8.08858e+06
7.97431e+06
7.86493e+06
7.76432e+06
7.6694e+06
7.57356e+06
7.47483e+06
7.37587e+06
7.28118e+06
7.19126e+06
7.10318e+06
7.02283e+06
6.9579e+06
6.90076e+06
6.85165e+06
6.77385e+06
6.53908e+06
5.92294e+06
4.67085e+06
2.71039e+06
919830
131342
5744.05
80.0128
0.890425
0.0365866
0.00981997
0.00725773
0.00716842
0.00729443
0.00765716
0.00813452
0.0083325
0.00829823
0.00817741
0.0080253
0.00784767
0.00768709
0.00745635
0.00695173
0.00562968
0.00300183
0.00054271
1.25882e-05
2.84485e-07
1.15343e-07
1.11247e-07
1.11225e-07
1.11225e-07
1.11225e-07
1.11225e-07
1.11225e-07
1.11225e-07
1.11225e-07
1.11225e-07
1.11225e-07
1.11225e-07
1.11225e-07
1.11225e-07
1.11225e-07
1.11225e-07
1.11225e-07
1.11225e-07
1.11225e-07
1.11225e-07
1.11225e-07
1.11225e-07
1.11225e-07
1.11225e-07
1.11225e-07
1.11225e-07
1.11225e-07
1.11225e-07
1.11225e-07
1.11225e-07
1.78439e+08
1.78439e+08
1.78439e+08
1.78439e+08
1.78439e+08
1.78439e+08
1.78439e+08
1.78439e+08
1.78439e+08
1.78439e+08
1.78439e+08
1.78439e+08
1.78439e+08
1.78439e+08
1.78439e+08
1.78439e+08
1.78439e+08
1.78439e+08
1.78439e+08
1.78439e+08
1.78439e+08
1.78439e+08
1.78439e+08
1.78439e+08
1.78439e+08
1.78439e+08
1.78439e+08
1.78439e+08
1.78439e+08
1.78439e+08
1.78439e+08
1.78439e+08
1.78439e+08
1.78439e+08
1.78439e+08
1.78439e+08
1.78439e+08
1.78439e+08
1.78439e+08
1.78439e+08
1.78439e+08
1.78439e+08
1.78439e+08
1.78439e+08
1.78439e+08
1.78439e+08
1.78439e+08
1.78439e+08
1.78439e+08
1.78437e+08
1.78378e+08
1.77896e+08
1.76124e+08
1.72194e+08
1.65738e+08
1.56904e+08
1.46184e+08
1.34223e+08
1.2167e+08
1.09082e+08
9.68826e+07
8.53722e+07
7.47278e+07
6.50414e+07
5.63401e+07
4.86053e+07
4.17905e+07
3.58337e+07
3.06663e+07
2.62201e+07
2.24318e+07
1.92453e+07
1.66125e+07
1.44909e+07
1.28386e+07
1.16078e+07
1.07383e+07
1.01566e+07
9.78056e+06
9.52582e+06
9.33557e+06
9.19814e+06
9.10653e+06
9.01682e+06
8.91298e+06
8.79599e+06
8.67229e+06
8.54852e+06
8.42948e+06
8.31563e+06
8.20294e+06
8.08858e+06
7.97431e+06
7.86493e+06
7.76432e+06
7.6694e+06
7.57356e+06
7.47482e+06
7.37588e+06
7.28119e+06
7.19125e+06
7.10317e+06
7.02282e+06
6.95789e+06
6.90076e+06
6.85165e+06
6.77384e+06
6.53907e+06
5.92293e+06
4.67083e+06
2.71037e+06
919822
131341
5743.98
80.0126
0.890432
0.0365871
0.00982009
0.00725776
0.00716845
0.00729445
0.00765718
0.00813453
0.00833251
0.00829824
0.00817743
0.00802533
0.00784769
0.00768712
0.00745637
0.00695175
0.0056297
0.00300186
0.00054272
1.25886e-05
2.84488e-07
1.15343e-07
1.11247e-07
1.11225e-07
1.11225e-07
1.11225e-07
1.11225e-07
1.11225e-07
1.11225e-07
1.11225e-07
1.11225e-07
1.11225e-07
1.11225e-07
1.11225e-07
1.11225e-07
1.11225e-07
1.11225e-07
1.11225e-07
1.11225e-07
1.11225e-07
1.11225e-07
1.11225e-07
1.11225e-07
1.11225e-07
1.11225e-07
1.11225e-07
1.11225e-07
1.11225e-07
1.11225e-07
1.11225e-07
1.11225e-07
1.78439e+08
1.78439e+08
1.78439e+08
1.78439e+08
1.78439e+08
1.78439e+08
1.78439e+08
1.78439e+08
1.78439e+08
1.78439e+08
1.78439e+08
1.78439e+08
1.78439e+08
1.78439e+08
1.78439e+08
1.78439e+08
1.78439e+08
1.78439e+08
1.78439e+08
1.78439e+08
1.78439e+08
1.78439e+08
1.78439e+08
1.78439e+08
1.78439e+08
1.78439e+08
1.78439e+08
1.78439e+08
1.78439e+08
1.78439e+08
1.78439e+08
1.78439e+08
1.78439e+08
1.78439e+08
1.78439e+08
1.78439e+08
1.78439e+08
1.78439e+08
1.78439e+08
1.78439e+08
1.78439e+08
1.78439e+08
1.78439e+08
1.78439e+08
1.78439e+08
1.78439e+08
1.78439e+08
1.78439e+08
1.78439e+08
1.78437e+08
1.78378e+08
1.77896e+08
1.76124e+08
1.72194e+08
1.65738e+08
1.56904e+08
1.46184e+08
1.34223e+08
1.2167e+08
1.09082e+08
9.68825e+07
8.53721e+07
7.47277e+07
6.50414e+07
5.634e+07
4.86052e+07
4.17905e+07
3.58336e+07
3.06662e+07
2.62201e+07
2.24317e+07
1.92453e+07
1.66125e+07
1.44909e+07
1.28386e+07
1.16077e+07
1.07382e+07
1.01565e+07
9.78054e+06
9.52581e+06
9.33556e+06
9.19814e+06
9.10653e+06
9.01682e+06
8.91298e+06
8.79599e+06
8.67229e+06
8.54852e+06
8.42948e+06
8.31563e+06
8.20294e+06
8.08858e+06
7.97432e+06
7.86494e+06
7.76433e+06
7.6694e+06
7.57356e+06
7.47482e+06
7.37588e+06
7.28119e+06
7.19126e+06
7.10317e+06
7.02282e+06
6.9579e+06
6.90077e+06
6.85166e+06
6.77384e+06
6.53907e+06
5.92291e+06
4.6708e+06
2.71033e+06
919801
131336
5743.78
80.0105
0.890421
0.0365872
0.00982016
0.0072578
0.00716848
0.00729448
0.0076572
0.00813455
0.00833253
0.00829825
0.00817745
0.00802535
0.00784772
0.00768714
0.00745639
0.00695177
0.00562972
0.00300188
0.000542729
1.25889e-05
2.84492e-07
1.15343e-07
1.11247e-07
1.11225e-07
1.11225e-07
1.11225e-07
1.11225e-07
1.11225e-07
1.11225e-07
1.11225e-07
1.11225e-07
1.11225e-07
1.11225e-07
1.11225e-07
1.11225e-07
1.11225e-07
1.11225e-07
1.11225e-07
1.11225e-07
1.11225e-07
1.11225e-07
1.11225e-07
1.11225e-07
1.11225e-07
1.11225e-07
1.11225e-07
1.11225e-07
1.11225e-07
1.11225e-07
1.11225e-07
1.11225e-07
1.78439e+08
1.78439e+08
1.78439e+08
1.78439e+08
1.78439e+08
1.78439e+08
1.78439e+08
1.78439e+08
1.78439e+08
1.78439e+08
1.78439e+08
1.78439e+08
1.78439e+08
1.78439e+08
1.78439e+08
1.78439e+08
1.78439e+08
1.78439e+08
1.78439e+08
1.78439e+08
1.78439e+08
1.78439e+08
1.78439e+08
1.78439e+08
1.78439e+08
1.78439e+08
1.78439e+08
1.78439e+08
1.78439e+08
1.78439e+08
1.78439e+08
1.78439e+08
1.78439e+08
1.78439e+08
1.78439e+08
1.78439e+08
1.78439e+08
1.78439e+08
1.78439e+08
1.78439e+08
1.78439e+08
1.78439e+08
1.78439e+08
1.78439e+08
1.78439e+08
1.78439e+08
1.78439e+08
1.78439e+08
1.78439e+08
1.78437e+08
1.78378e+08
1.77896e+08
1.76124e+08
1.72194e+08
1.65738e+08
1.56904e+08
1.46184e+08
1.34223e+08
1.2167e+08
1.09082e+08
9.68824e+07
8.5372e+07
7.47276e+07
6.50413e+07
5.634e+07
4.86052e+07
4.17904e+07
3.58336e+07
3.06662e+07
2.622e+07
2.24317e+07
1.92452e+07
1.66125e+07
1.44909e+07
1.28386e+07
1.16077e+07
1.07382e+07
1.01565e+07
9.78052e+06
9.52579e+06
9.33555e+06
9.19813e+06
9.10653e+06
9.01682e+06
8.91298e+06
8.79599e+06
8.67229e+06
8.54852e+06
8.42948e+06
8.31563e+06
8.20294e+06
8.08858e+06
7.97432e+06
7.86494e+06
7.76433e+06
7.6694e+06
7.57356e+06
7.47483e+06
7.37588e+06
7.28119e+06
7.19126e+06
7.10318e+06
7.02283e+06
6.9579e+06
6.90078e+06
6.85167e+06
6.77384e+06
6.53908e+06
5.9229e+06
4.67077e+06
2.7103e+06
919779
131331
5743.52
80.0073
0.890401
0.0365872
0.00982022
0.00725784
0.00716851
0.00729451
0.00765722
0.00813457
0.00833255
0.00829828
0.00817748
0.00802538
0.00784775
0.00768717
0.00745641
0.00695179
0.00562974
0.0030019
0.000542737
1.25892e-05
2.84495e-07
1.15343e-07
1.11247e-07
1.11225e-07
1.11225e-07
1.11225e-07
1.11225e-07
1.11225e-07
1.11225e-07
1.11225e-07
1.11225e-07
1.11225e-07
1.11225e-07
1.11225e-07
1.11225e-07
1.11225e-07
1.11225e-07
1.11225e-07
1.11225e-07
1.11225e-07
1.11225e-07
1.11225e-07
1.11225e-07
1.11225e-07
1.11225e-07
1.11225e-07
1.11225e-07
1.11225e-07
1.11225e-07
1.11225e-07
1.11225e-07
1.78439e+08
1.78439e+08
1.78439e+08
1.78439e+08
1.78439e+08
1.78439e+08
1.78439e+08
1.78439e+08
1.78439e+08
1.78439e+08
1.78439e+08
1.78439e+08
1.78439e+08
1.78439e+08
1.78439e+08
1.78439e+08
1.78439e+08
1.78439e+08
1.78439e+08
1.78439e+08
1.78439e+08
1.78439e+08
1.78439e+08
1.78439e+08
1.78439e+08
1.78439e+08
1.78439e+08
1.78439e+08
1.78439e+08
1.78439e+08
1.78439e+08
1.78439e+08
1.78439e+08
1.78439e+08
1.78439e+08
1.78439e+08
1.78439e+08
1.78439e+08
1.78439e+08
1.78439e+08
1.78439e+08
1.78439e+08
1.78439e+08
1.78439e+08
1.78439e+08
1.78439e+08
1.78439e+08
1.78439e+08
1.78439e+08
1.78437e+08
1.78378e+08
1.77896e+08
1.76124e+08
1.72194e+08
1.65738e+08
1.56904e+08
1.46184e+08
1.34223e+08
1.2167e+08
1.09082e+08
9.68823e+07
8.53719e+07
7.47275e+07
6.50412e+07
5.63399e+07
4.86051e+07
4.17904e+07
3.58335e+07
3.06661e+07
2.622e+07
2.24316e+07
1.92452e+07
1.66124e+07
1.44908e+07
1.28385e+07
1.16077e+07
1.07382e+07
1.01565e+07
9.7805e+06
9.52577e+06
9.33554e+06
9.19812e+06
9.10653e+06
9.01682e+06
8.91298e+06
8.79599e+06
8.67229e+06
8.54852e+06
8.42948e+06
8.31563e+06
8.20294e+06
8.08858e+06
7.97432e+06
7.86494e+06
7.76434e+06
7.66941e+06
7.57356e+06
7.47483e+06
7.37588e+06
7.2812e+06
7.19126e+06
7.10318e+06
7.02283e+06
6.95791e+06
6.90079e+06
6.85168e+06
6.77385e+06
6.53908e+06
5.9229e+06
4.67076e+06
2.71027e+06
919762
131328
5743.31
80.0046
0.890403
0.0365871
0.00982025
0.00725787
0.00716853
0.00729453
0.00765724
0.00813458
0.00833257
0.0082983
0.00817751
0.00802541
0.00784778
0.00768719
0.00745644
0.00695181
0.00562977
0.00300193
0.000542745
1.25895e-05
2.84498e-07
1.15343e-07
1.11247e-07
1.11225e-07
1.11225e-07
1.11225e-07
1.11225e-07
1.11225e-07
1.11225e-07
1.11225e-07
1.11225e-07
1.11225e-07
1.11225e-07
1.11225e-07
1.11225e-07
1.11225e-07
1.11225e-07
1.11225e-07
1.11225e-07
1.11225e-07
1.11225e-07
1.11225e-07
1.11225e-07
1.11225e-07
1.11225e-07
1.11225e-07
1.11225e-07
1.11225e-07
1.11225e-07
1.11225e-07
1.11225e-07
1.78439e+08
1.78439e+08
1.78439e+08
1.78439e+08
1.78439e+08
1.78439e+08
1.78439e+08
1.78439e+08
1.78439e+08
1.78439e+08
1.78439e+08
1.78439e+08
1.78439e+08
1.78439e+08
1.78439e+08
1.78439e+08
1.78439e+08
1.78439e+08
1.78439e+08
1.78439e+08
1.78439e+08
1.78439e+08
1.78439e+08
1.78439e+08
1.78439e+08
1.78439e+08
1.78439e+08
1.78439e+08
1.78439e+08
1.78439e+08
1.78439e+08
1.78439e+08
1.78439e+08
1.78439e+08
1.78439e+08
1.78439e+08
1.78439e+08
1.78439e+08
1.78439e+08
1.78439e+08
1.78439e+08
1.78439e+08
1.78439e+08
1.78439e+08
1.78439e+08
1.78439e+08
1.78439e+08
1.78439e+08
1.78439e+08
1.78437e+08
1.78378e+08
1.77896e+08
1.76124e+08
1.72194e+08
1.65738e+08
1.56904e+08
1.46184e+08
1.34223e+08
1.2167e+08
1.09082e+08
9.68823e+07
8.53719e+07
7.47275e+07
6.50412e+07
5.63398e+07
4.86051e+07
4.17903e+07
3.58335e+07
3.06661e+07
2.62199e+07
2.24316e+07
1.92452e+07
1.66124e+07
1.44908e+07
1.28385e+07
1.16076e+07
1.07382e+07
1.01565e+07
9.78049e+06
9.52576e+06
9.33552e+06
9.19812e+06
9.10653e+06
9.01682e+06
8.91298e+06
8.79599e+06
8.67229e+06
8.54852e+06
8.42948e+06
8.31563e+06
8.20294e+06
8.08858e+06
7.97432e+06
7.86494e+06
7.76434e+06
7.66941e+06
7.57357e+06
7.47483e+06
7.37588e+06
7.2812e+06
7.19127e+06
7.10318e+06
7.02284e+06
6.95792e+06
6.9008e+06
6.85169e+06
6.77385e+06
6.53909e+06
5.9229e+06
4.67075e+06
2.71026e+06
919752
131325
5743.18
80.0028
0.890391
0.036587
0.00982028
0.00725789
0.00716854
0.00729454
0.00765726
0.0081346
0.00833259
0.00829833
0.00817753
0.00802544
0.00784781
0.00768722
0.00745646
0.00695184
0.0056298
0.00300195
0.000542753
1.25897e-05
2.845e-07
1.15343e-07
1.11247e-07
1.11225e-07
1.11225e-07
1.11225e-07
1.11225e-07
1.11225e-07
1.11225e-07
1.11225e-07
1.11225e-07
1.11225e-07
1.11225e-07
1.11225e-07
1.11225e-07
1.11225e-07
1.11225e-07
1.11225e-07
1.11225e-07
1.11225e-07
1.11225e-07
1.11225e-07
1.11225e-07
1.11225e-07
1.11225e-07
1.11225e-07
1.11225e-07
1.11225e-07
1.11225e-07
1.11225e-07
1.11225e-07
1.78439e+08
1.78439e+08
1.78439e+08
1.78439e+08
1.78439e+08
1.78439e+08
1.78439e+08
1.78439e+08
1.78439e+08
1.78439e+08
1.78439e+08
1.78439e+08
1.78439e+08
1.78439e+08
1.78439e+08
1.78439e+08
1.78439e+08
1.78439e+08
1.78439e+08
1.78439e+08
1.78439e+08
1.78439e+08
1.78439e+08
1.78439e+08
1.78439e+08
1.78439e+08
1.78439e+08
1.78439e+08
1.78439e+08
1.78439e+08
1.78439e+08
1.78439e+08
1.78439e+08
1.78439e+08
1.78439e+08
1.78439e+08
1.78439e+08
1.78439e+08
1.78439e+08
1.78439e+08
1.78439e+08
1.78439e+08
1.78439e+08
1.78439e+08
1.78439e+08
1.78439e+08
1.78439e+08
1.78439e+08
1.78439e+08
1.78437e+08
1.78378e+08
1.77896e+08
1.76124e+08
1.72194e+08
1.65738e+08
1.56904e+08
1.46184e+08
1.34223e+08
1.2167e+08
1.09082e+08
9.68822e+07
8.53718e+07
7.47274e+07
6.50411e+07
5.63398e+07
4.8605e+07
4.17903e+07
3.58335e+07
3.06661e+07
2.62199e+07
2.24316e+07
1.92451e+07
1.66124e+07
1.44908e+07
1.28385e+07
1.16076e+07
1.07381e+07
1.01564e+07
9.78047e+06
9.52574e+06
9.33551e+06
9.19811e+06
9.10652e+06
9.01682e+06
8.91298e+06
8.79599e+06
8.67229e+06
8.54852e+06
8.42948e+06
8.31564e+06
8.20294e+06
8.08858e+06
7.97432e+06
7.86494e+06
7.76434e+06
7.66941e+06
7.57357e+06
7.47484e+06
7.37588e+06
7.2812e+06
7.19127e+06
7.10319e+06
7.02284e+06
6.95792e+06
6.9008e+06
6.8517e+06
6.77386e+06
6.5391e+06
5.9229e+06
4.67074e+06
2.71025e+06
919745
131324
5743.09
80.0016
0.890383
0.0365869
0.00982029
0.00725791
0.00716856
0.00729455
0.00765727
0.00813462
0.00833262
0.00829836
0.00817757
0.00802547
0.00784784
0.00768725
0.00745649
0.00695187
0.00562982
0.00300197
0.00054276
1.25899e-05
2.84503e-07
1.15343e-07
1.11247e-07
1.11225e-07
1.11225e-07
1.11225e-07
1.11225e-07
1.11225e-07
1.11225e-07
1.11225e-07
1.11225e-07
1.11225e-07
1.11225e-07
1.11225e-07
1.11225e-07
1.11225e-07
1.11225e-07
1.11225e-07
1.11225e-07
1.11225e-07
1.11225e-07
1.11225e-07
1.11225e-07
1.11225e-07
1.11225e-07
1.11225e-07
1.11225e-07
1.11225e-07
1.11225e-07
1.11225e-07
1.11225e-07
1.78439e+08
1.78439e+08
1.78439e+08
1.78439e+08
1.78439e+08
1.78439e+08
1.78439e+08
1.78439e+08
1.78439e+08
1.78439e+08
1.78439e+08
1.78439e+08
1.78439e+08
1.78439e+08
1.78439e+08
1.78439e+08
1.78439e+08
1.78439e+08
1.78439e+08
1.78439e+08
1.78439e+08
1.78439e+08
1.78439e+08
1.78439e+08
1.78439e+08
1.78439e+08
1.78439e+08
1.78439e+08
1.78439e+08
1.78439e+08
1.78439e+08
1.78439e+08
1.78439e+08
1.78439e+08
1.78439e+08
1.78439e+08
1.78439e+08
1.78439e+08
1.78439e+08
1.78439e+08
1.78439e+08
1.78439e+08
1.78439e+08
1.78439e+08
1.78439e+08
1.78439e+08
1.78439e+08
1.78439e+08
1.78439e+08
1.78437e+08
1.78378e+08
1.77896e+08
1.76124e+08
1.72194e+08
1.65738e+08
1.56904e+08
1.46184e+08
1.34223e+08
1.2167e+08
1.09082e+08
9.68822e+07
8.53717e+07
7.47273e+07
6.5041e+07
5.63397e+07
4.8605e+07
4.17902e+07
3.58334e+07
3.0666e+07
2.62199e+07
2.24315e+07
1.92451e+07
1.66123e+07
1.44907e+07
1.28385e+07
1.16076e+07
1.07381e+07
1.01564e+07
9.78045e+06
9.52572e+06
9.33549e+06
9.1981e+06
9.10652e+06
9.01681e+06
8.91298e+06
8.79598e+06
8.67229e+06
8.54852e+06
8.42948e+06
8.31564e+06
8.20294e+06
8.08858e+06
7.97432e+06
7.86494e+06
7.76434e+06
7.66942e+06
7.57357e+06
7.47484e+06
7.37588e+06
7.28121e+06
7.19127e+06
7.10319e+06
7.02285e+06
6.95793e+06
6.90081e+06
6.85171e+06
6.77387e+06
6.5391e+06
5.9229e+06
4.67074e+06
2.71024e+06
919740
131323
5743.03
80.0008
0.890377
0.0365869
0.0098203
0.00725793
0.00716857
0.00729457
0.00765729
0.00813465
0.00833265
0.00829839
0.0081776
0.0080255
0.00784786
0.00768728
0.00745652
0.0069519
0.00562985
0.003002
0.000542767
1.25902e-05
2.84505e-07
1.15343e-07
1.11247e-07
1.11225e-07
1.11225e-07
1.11225e-07
1.11225e-07
1.11225e-07
1.11225e-07
1.11225e-07
1.11225e-07
1.11225e-07
1.11225e-07
1.11225e-07
1.11225e-07
1.11225e-07
1.11225e-07
1.11225e-07
1.11225e-07
1.11225e-07
1.11225e-07
1.11225e-07
1.11225e-07
1.11225e-07
1.11225e-07
1.11225e-07
1.11225e-07
1.11225e-07
1.11225e-07
1.11225e-07
1.11225e-07
1.78439e+08
1.78439e+08
1.78439e+08
1.78439e+08
1.78439e+08
1.78439e+08
1.78439e+08
1.78439e+08
1.78439e+08
1.78439e+08
1.78439e+08
1.78439e+08
1.78439e+08
1.78439e+08
1.78439e+08
1.78439e+08
1.78439e+08
1.78439e+08
1.78439e+08
1.78439e+08
1.78439e+08
1.78439e+08
1.78439e+08
1.78439e+08
1.78439e+08
1.78439e+08
1.78439e+08
1.78439e+08
1.78439e+08
1.78439e+08
1.78439e+08
1.78439e+08
1.78439e+08
1.78439e+08
1.78439e+08
1.78439e+08
1.78439e+08
1.78439e+08
1.78439e+08
1.78439e+08
1.78439e+08
1.78439e+08
1.78439e+08
1.78439e+08
1.78439e+08
1.78439e+08
1.78439e+08
1.78439e+08
1.78439e+08
1.78437e+08
1.78378e+08
1.77896e+08
1.76124e+08
1.72194e+08
1.65738e+08
1.56904e+08
1.46184e+08
1.34223e+08
1.2167e+08
1.09082e+08
9.68821e+07
8.53717e+07
7.47273e+07
6.5041e+07
5.63397e+07
4.86049e+07
4.17902e+07
3.58334e+07
3.0666e+07
2.62198e+07
2.24315e+07
1.92451e+07
1.66123e+07
1.44907e+07
1.28384e+07
1.16076e+07
1.07381e+07
1.01564e+07
9.78043e+06
9.5257e+06
9.33548e+06
9.19809e+06
9.10651e+06
9.01681e+06
8.91297e+06
8.79598e+06
8.67228e+06
8.54852e+06
8.42948e+06
8.31564e+06
8.20294e+06
8.08858e+06
7.97433e+06
7.86495e+06
7.76434e+06
7.66942e+06
7.57358e+06
7.47484e+06
7.37589e+06
7.28121e+06
7.19128e+06
7.1032e+06
7.02285e+06
6.95793e+06
6.90082e+06
6.85171e+06
6.77387e+06
6.53911e+06
5.9229e+06
4.67074e+06
2.71023e+06
919736
131322
5742.98
80.0001
0.890372
0.0365868
0.00982031
0.00725794
0.00716859
0.00729459
0.00765731
0.00813467
0.00833268
0.00829842
0.00817763
0.00802553
0.00784789
0.0076873
0.00745655
0.00695193
0.00562988
0.00300202
0.000542773
1.25903e-05
2.84506e-07
1.15343e-07
1.11247e-07
1.11225e-07
1.11225e-07
1.11225e-07
1.11225e-07
1.11225e-07
1.11225e-07
1.11225e-07
1.11225e-07
1.11225e-07
1.11225e-07
1.11225e-07
1.11225e-07
1.11225e-07
1.11225e-07
1.11225e-07
1.11225e-07
1.11225e-07
1.11225e-07
1.11225e-07
1.11225e-07
1.11225e-07
1.11225e-07
1.11225e-07
1.11225e-07
1.11225e-07
1.11225e-07
1.11225e-07
1.11225e-07
1.78439e+08
1.78439e+08
1.78439e+08
1.78439e+08
1.78439e+08
1.78439e+08
1.78439e+08
1.78439e+08
1.78439e+08
1.78439e+08
1.78439e+08
1.78439e+08
1.78439e+08
1.78439e+08
1.78439e+08
1.78439e+08
1.78439e+08
1.78439e+08
1.78439e+08
1.78439e+08
1.78439e+08
1.78439e+08
1.78439e+08
1.78439e+08
1.78439e+08
1.78439e+08
1.78439e+08
1.78439e+08
1.78439e+08
1.78439e+08
1.78439e+08
1.78439e+08
1.78439e+08
1.78439e+08
1.78439e+08
1.78439e+08
1.78439e+08
1.78439e+08
1.78439e+08
1.78439e+08
1.78439e+08
1.78439e+08
1.78439e+08
1.78439e+08
1.78439e+08
1.78439e+08
1.78439e+08
1.78439e+08
1.78439e+08
1.78437e+08
1.78378e+08
1.77896e+08
1.76124e+08
1.72194e+08
1.65738e+08
1.56904e+08
1.46184e+08
1.34223e+08
1.2167e+08
1.09082e+08
9.68821e+07
8.53717e+07
7.47273e+07
6.5041e+07
5.63396e+07
4.86049e+07
4.17901e+07
3.58333e+07
3.0666e+07
2.62198e+07
2.24315e+07
1.9245e+07
1.66123e+07
1.44907e+07
1.28384e+07
1.16075e+07
1.07381e+07
1.01564e+07
9.7804e+06
9.52568e+06
9.33546e+06
9.19807e+06
9.1065e+06
9.0168e+06
8.91297e+06
8.79598e+06
8.67228e+06
8.54852e+06
8.42948e+06
8.31564e+06
8.20294e+06
8.08859e+06
7.97433e+06
7.86495e+06
7.76434e+06
7.66942e+06
7.57358e+06
7.47485e+06
7.37589e+06
7.28122e+06
7.19128e+06
7.1032e+06
7.02286e+06
6.95793e+06
6.90082e+06
6.85172e+06
6.77388e+06
6.53911e+06
5.9229e+06
4.67073e+06
2.71023e+06
919733
131321
5742.93
79.9995
0.890368
0.0365868
0.00982033
0.00725796
0.00716861
0.00729461
0.00765734
0.0081347
0.00833271
0.00829845
0.00817765
0.00802555
0.00784791
0.00768733
0.00745658
0.00695196
0.00562991
0.00300204
0.000542779
1.25905e-05
2.84508e-07
1.15343e-07
1.11247e-07
1.11225e-07
1.11225e-07
1.11225e-07
1.11225e-07
1.11225e-07
1.11225e-07
1.11225e-07
1.11225e-07
1.11225e-07
1.11225e-07
1.11225e-07
1.11225e-07
1.11225e-07
1.11225e-07
1.11225e-07
1.11225e-07
1.11225e-07
1.11225e-07
1.11225e-07
1.11225e-07
1.11225e-07
1.11225e-07
1.11225e-07
1.11225e-07
1.11225e-07
1.11225e-07
1.11225e-07
1.11225e-07
1.78439e+08
1.78439e+08
1.78439e+08
1.78439e+08
1.78439e+08
1.78439e+08
1.78439e+08
1.78439e+08
1.78439e+08
1.78439e+08
1.78439e+08
1.78439e+08