/*--------------------------------*- C++ -*----------------------------------*\
  =========                 |
  \\      /  F ield         | OpenFOAM: The Open Source CFD Toolbox
   \\    /   O peration     | Website:  https://openfoam.org
    \\  /    A nd           | Version:  13
     \\/     M anipulation  |
\*---------------------------------------------------------------------------*/
FoamFile
{
    format      ascii;
    class       volVectorField;
    location    "0.0007";
    object      U;
}
// * * * * * * * * * * * * * * * * * * * * * * * * * * * * * * * * * * * * * //

dimensions      [0 1 -1 0 0 0 0];

internalField   nonuniform List<vector> 
33334
(
(-1.23314e-13 1.57984e-14 0)
(-6.07217e-15 8.69845e-14 0)
(1.41737e-14 1.27234e-13 0)
(8.14583e-14 4.07743e-14 0)
(8.2037e-14 -5.9513e-14 0)
(9.29371e-14 -4.22479e-15 0)
(2.79554e-13 -1.52765e-14 0)
(2.36265e-13 -8.80004e-14 0)
(3.80557e-14 -9.22666e-14 0)
(4.38733e-14 -1.58091e-14 0)
(1.628e-13 -5.28084e-14 0)
(2.24424e-13 -9.23301e-14 0)
(1.19849e-13 -1.3267e-13 0)
(1.2361e-13 -1.93781e-13 0)
(4.27074e-14 -2.73757e-13 0)
(-1.0509e-14 -1.53638e-13 0)
(-3.49183e-14 -1.47459e-13 0)
(-8.53175e-14 -1.47376e-13 0)
(-1.20966e-13 -1.35997e-13 0)
(1.22331e-13 -1.01343e-13 0)
(1.40219e-13 -1.73767e-13 0)
(1.03891e-13 -1.58868e-13 0)
(8.91761e-14 -7.23557e-14 0)
(-4.01065e-14 2.00492e-15 0)
(8.74582e-14 -1.76903e-14 0)
(9.03301e-14 -9.15001e-14 0)
(2.0186e-13 -8.46764e-14 0)
(4.87245e-14 -3.5334e-14 0)
(-1.39276e-13 -5.34946e-14 0)
(-2.06931e-13 -8.95131e-14 0)
(-2.12578e-13 -1.11546e-13 0)
(-1.59095e-13 -1.09277e-13 0)
(-1.41322e-13 -1.65575e-13 0)
(-1.52485e-13 -1.14787e-13 0)
(-1.16802e-13 -6.53746e-14 0)
(-8.3328e-14 -4.82687e-14 0)
(3.68124e-14 4.95779e-15 0)
(7.4762e-14 -3.43097e-14 0)
(5.18802e-14 -2.68475e-14 0)
(1.89684e-14 -2.17023e-14 0)
(6.09492e-14 -1.99186e-14 0)
(1.59264e-13 -1.48328e-13 0)
(1.42002e-13 -1.59601e-13 0)
(2.05291e-14 -1.04083e-13 0)
(-2.77661e-14 -4.70768e-14 0)
(-1.47805e-13 -5.59685e-14 0)
(1.14477e-11 1.00219e-13 0)
(4.58587e-08 1.57427e-11 0)
(2.49909e-05 2.12226e-09 0)
(0.00219472 6.94378e-08 0)
(0.0462874 7.74249e-07 0)
(0.350726 4.0467e-06 0)
(1.35785 1.2869e-05 0)
(3.47601 2.97224e-05 0)
(6.90577 5.56549e-05 0)
(11.6661 9.05296e-05 0)
(17.6607 0.000133632 0)
(24.7333 0.000184046 0)
(32.7088 0.000240831 0)
(41.4191 0.000303128 0)
(50.7158 0.000370223 0)
(60.4742 0.000441608 0)
(70.5936 0.000517041 0)
(80.9921 0.000596615 0)
(91.6035 0.000680954 0)
(102.374 0.000768332 0)
(113.255 0.000853503 0)
(124.198 0.000932101 0)
(135.148 0.00100188 0)
(146.027 0.0010681 0)
(156.722 0.00114013 0)
(167.065 0.00120541 0)
(176.811 0.00126342 0)
(185.642 0.00131677 0)
(193.197 0.00136398 0)
(199.164 0.00139972 0)
(203.395 0.00142523 0)
(205.997 0.00142184 0)
(207.312 0.0015039 0)
(207.79 0.00153937 0)
(207.911 0.00153017 0)
(207.59 0.00152641 0)
(206.987 0.00154308 0)
(206.431 0.00152752 0)
(206.014 0.00152325 0)
(205.72 0.00154061 0)
(205.506 0.00165188 0)
(205.321 0.00119817 0)
(205.122 0.00204634 0)
(204.909 0.000952013 0)
(204.717 0.00188564 0)
(204.566 0.00156554 0)
(204.436 0.00116016 0)
(204.281 0.00168894 0)
(204.072 0.00174291 0)
(203.847 0.00176674 0)
(203.662 0.00194091 0)
(203.524 0.00106902 0)
(203.385 0.0030776 0)
(203.186 0.00128822 0)
(202.936 0.00153075 0)
(202.721 0.00206306 0)
(202.58 0.00219766 0)
(202.449 0.00242707 0)
(202.326 0.00310478 0)
(202.108 0.00237875 0)
(201.763 0.0021144 0)
(201.697 0.000176278 0)
(201.732 -0.00311315 0)
(201.228 -0.0111547 0)
(201.172 -0.0184612 0)
(200.932 -0.0229333 0)
(201.056 -0.0208973 0)
(201.532 -0.0130199 0)
(201.952 -0.00455515 0)
(201.38 -0.000183578 0)
(200.444 0.000106983 0)
(200.482 -0.000815822 0)
(199.723 -0.00108542 0)
(199.586 -0.00119776 0)
(199.446 -0.00140547 0)
(199.263 -0.00167433 0)
(199.077 -0.00183229 0)
(198.853 -0.00181866 0)
(198.528 -0.00171689 0)
(198.236 -0.00157803 0)
(198.004 -0.00146232 0)
(197.821 -0.00140014 0)
(197.608 -0.00134405 0)
(197.16 -0.00127156 0)
(195.875 -0.00119357 0)
(191.999 -0.00111738 0)
(180.619 -0.00102 0)
(149.669 -0.000835957 0)
(84.7139 -0.000504039 0)
(18.8654 -0.000156931 0)
(0.925053 -1.73194e-05 0)
(0.00687434 -4.77846e-07 0)
(5.43067e-06 -2.26115e-09 0)
(6.68046e-10 -1.12765e-12 0)
(2.48872e-13 -6.03222e-14 0)
(7.44296e-14 -9.4068e-14 0)
(-2.38163e-14 -6.36852e-14 0)
(-4.14626e-14 2.15992e-14 0)
(-1.79439e-14 -4.63089e-14 0)
(-6.1701e-14 -3.4842e-14 0)
(2.62418e-14 3.43128e-14 0)
(2.77634e-14 9.83735e-14 0)
(6.72113e-14 8.63978e-14 0)
(1.1572e-13 4.26767e-14 0)
(8.08643e-14 2.53852e-14 0)
(-1.04077e-13 5.51767e-14 0)
(-1.11007e-13 1.1472e-13 0)
(3.60195e-14 1.25287e-13 0)
(-2.19519e-14 2.45721e-14 0)
(-1.14057e-13 1.23561e-14 0)
(-1.26413e-13 -7.61101e-14 0)
(-3.10718e-14 -5.18817e-14 0)
(1.17082e-13 -2.35913e-14 0)
(1.58352e-14 -4.4519e-14 0)
(-3.41514e-14 -6.73851e-15 0)
(6.44688e-14 -2.26107e-14 0)
(5.91086e-14 -7.70884e-14 0)
(-9.30301e-15 -2.39152e-14 0)
(-1.06687e-13 1.47899e-15 0)
(-1.39189e-13 -3.49446e-14 0)
(-3.76835e-14 -9.25624e-15 0)
(3.88605e-14 -1.36682e-14 0)
(-1.61472e-14 2.66847e-14 0)
(-3.17219e-15 -1.78342e-14 0)
(1.28355e-13 -3.00336e-14 0)
(1.57908e-13 2.60633e-14 0)
(2.19347e-13 1.1335e-14 0)
(1.61146e-13 -7.80923e-14 0)
(1.98326e-13 -8.59668e-14 0)
(1.17373e-13 -4.76099e-14 0)
(1.1564e-13 -1.32942e-13 0)
(1.28678e-13 -1.48995e-13 0)
(1.1885e-13 -1.73934e-13 0)
(6.03205e-14 -1.80659e-13 0)
(1.21819e-13 -1.9037e-13 0)
(1.57504e-14 -1.36206e-13 0)
(-8.18199e-14 -1.46794e-13 0)
(-3.83955e-14 -9.83578e-14 0)
(-4.37459e-14 -5.76101e-14 0)
(2.43741e-14 -6.49037e-14 0)
(7.43096e-14 -1.68159e-13 0)
(1.51193e-13 -1.19606e-13 0)
(6.68161e-14 -9.17155e-14 0)
(4.9362e-14 -6.64731e-14 0)
(1.16002e-13 -2.70557e-14 0)
(4.97103e-14 -3.04181e-15 0)
(1.5643e-13 1.62987e-14 0)
(3.40057e-15 -1.10234e-13 0)
(-1.22008e-13 -9.33491e-14 0)
(-1.89167e-13 -1.99659e-14 0)
(-2.64758e-13 -5.07648e-14 0)
(-1.78266e-13 -8.52071e-14 0)
(-1.37026e-13 -7.95931e-14 0)
(-1.22624e-13 -4.33806e-14 0)
(-5.30881e-14 -7.25391e-14 0)
(-3.84021e-14 4.1554e-14 0)
(5.26457e-14 2.9985e-14 0)
(3.71672e-14 4.66021e-14 0)
(2.21611e-14 -6.44605e-15 0)
(-1.17189e-16 3.24908e-14 0)
(3.27609e-14 6.29444e-15 0)
(1.11946e-13 -3.70231e-14 0)
(1.63515e-13 -9.67764e-14 0)
(9.89461e-14 -7.63383e-14 0)
(-2.04107e-14 4.55754e-14 0)
(-1.34545e-13 -2.77771e-14 0)
(1.14461e-11 -4.95005e-14 0)
(4.58609e-08 6.06176e-13 0)
(2.4992e-05 2.96405e-10 0)
(0.00219481 2.62e-08 0)
(0.0462888 5.60543e-07 0)
(0.350736 4.19853e-06 0)
(1.35788 1.60884e-05 0)
(3.4761 4.09901e-05 0)
(6.90594 8.09184e-05 0)
(11.6664 0.000135311 0)
(17.6613 0.000202303 0)
(24.7341 0.000279685 0)
(32.7099 0.000365362 0)
(41.4208 0.000457554 0)
(50.718 0.000554805 0)
(60.4771 0.000655947 0)
(70.5974 0.000760079 0)
(80.9967 0.000866666 0)
(91.6092 0.000975231 0)
(102.381 0.00109016 0)
(113.263 0.00121579 0)
(124.208 0.00134832 0)
(135.159 0.00148311 0)
(146.04 0.00160182 0)
(156.737 0.00172749 0)
(167.081 0.00188283 0)
(176.829 0.00204598 0)
(185.663 0.0022156 0)
(193.221 0.00240214 0)
(199.19 0.00259975 0)
(203.424 0.00279927 0)
(206.028 0.00297957 0)
(207.346 0.00323682 0)
(207.828 0.00348717 0)
(207.952 0.00313342 0)
(207.634 0.00308061 0)
(207.033 0.00326616 0)
(206.48 0.00325975 0)
(206.066 0.00321459 0)
(205.775 0.00325794 0)
(205.565 0.00324699 0)
(205.382 0.00312368 0)
(205.187 0.00323789 0)
(204.977 0.00303862 0)
(204.787 0.00307059 0)
(204.64 0.00335276 0)
(204.512 0.00266734 0)
(204.36 0.0034384 0)
(204.154 0.0029736 0)
(203.932 0.00286586 0)
(203.751 0.00385362 0)
(203.616 0.00375089 0)
(203.48 0.00240926 0)
(203.284 0.00278654 0)
(203.037 0.00297665 0)
(202.824 0.00279747 0)
(202.686 0.00286016 0)
(202.558 0.00246729 0)
(202.437 0.00164172 0)
(202.22 0.000824252 0)
(201.876 -6.56375e-05 0)
(201.808 -0.00134727 0)
(201.839 -0.00374039 0)
(201.327 -0.00675275 0)
(201.258 -0.00884755 0)
(201.003 -0.0101563 0)
(201.111 -0.0106786 0)
(201.573 -0.0102571 0)
(201.983 -0.00835377 0)
(201.406 -0.0049799 0)
(200.47 -0.00223456 0)
(200.509 -0.000891926 0)
(199.751 -0.00070001 0)
(199.613 -0.000985823 0)
(199.472 -0.00135357 0)
(199.287 -0.00166628 0)
(199.1 -0.00174629 0)
(198.873 -0.00174227 0)
(198.547 -0.00168565 0)
(198.252 -0.00159459 0)
(198.018 -0.00152362 0)
(197.834 -0.00153031 0)
(197.619 -0.00153629 0)
(197.17 -0.00151119 0)
(195.882 -0.00148462 0)
(192.005 -0.00147734 0)
(180.623 -0.00145053 0)
(149.672 -0.0013042 0)
(84.7153 -0.000756982 0)
(18.8658 -0.000168415 0)
(0.925083 -8.13286e-06 0)
(0.00687463 -6.0217e-08 0)
(5.43094e-06 -5.1522e-11 0)
(6.67977e-10 -4.83077e-14 0)
(1.88633e-13 -1.60793e-13 0)
(5.54219e-14 -1.84709e-13 0)
(6.70437e-14 -1.42136e-13 0)
(-1.10748e-14 -2.60073e-14 0)
(-9.68807e-14 -1.51097e-13 0)
(-3.20423e-14 -8.14883e-14 0)
(6.65844e-14 -7.25289e-14 0)
(4.24262e-14 -2.67695e-14 0)
(5.37801e-14 -1.08157e-14 0)
(6.72245e-14 5.64228e-15 0)
(4.21738e-14 -4.48558e-14 0)
(-3.20065e-14 -4.64689e-14 0)
(-2.85619e-14 2.05302e-14 0)
(-3.17042e-14 2.83972e-14 0)
(-5.61072e-14 -6.96741e-14 0)
(-1.52309e-13 -9.33709e-14 0)
(-1.9286e-13 -6.58736e-14 0)
(-3.84803e-14 5.35327e-16 0)
(1.04344e-13 -8.42276e-14 0)
(5.65703e-15 -1.18455e-13 0)
(5.89307e-15 -8.66944e-14 0)
(-7.40689e-15 -6.89704e-14 0)
(2.17551e-14 -1.23036e-13 0)
(2.21394e-14 -1.56301e-13 0)
(-1.20529e-13 -1.07236e-13 0)
(-1.88327e-13 -1.82565e-13 0)
(-6.77602e-14 3.31243e-14 0)
(3.59705e-14 6.44474e-14 0)
(1.3729e-14 4.20463e-14 0)
(4.44958e-14 -3.00744e-14 0)
(9.70625e-14 3.55438e-14 0)
(1.0298e-13 2.59669e-14 0)
(2.16229e-13 -5.82032e-14 0)
(1.74861e-13 -7.79208e-14 0)
(9.47955e-14 -1.09334e-13 0)
(6.6666e-14 -1.01592e-13 0)
(1.29935e-13 -7.65732e-14 0)
(9.95067e-14 -7.82985e-14 0)
(8.17483e-14 -1.47732e-13 0)
(9.57699e-14 -1.14189e-13 0)
(1.47874e-13 -1.60919e-13 0)
(2.74687e-14 -2.31221e-13 0)
(-6.29994e-14 -1.77801e-13 0)
(1.48089e-14 -1.0832e-13 0)
(7.67083e-15 -2.45738e-15 0)
(-1.82747e-14 -8.71879e-15 0)
(6.64893e-14 -7.2104e-14 0)
(8.93233e-14 -1.27835e-13 0)
(1.64845e-13 -1.76936e-13 0)
(1.02646e-13 -8.4376e-14 0)
(1.50462e-13 -3.62188e-14 0)
(1.03771e-13 6.05638e-14 0)
(8.0866e-14 3.2109e-14 0)
(-7.59576e-14 3.05417e-14 0)
(-1.56759e-13 -2.85954e-14 0)
(-1.82427e-13 -3.88849e-14 0)
(-2.53482e-13 -1.01132e-13 0)
(-1.67001e-13 -7.2891e-14 0)
(-7.88123e-14 -5.09588e-14 0)
(-8.49617e-14 1.13256e-15 0)
(-9.03044e-14 1.1398e-14 0)
(-2.23226e-14 2.09585e-14 0)
(9.0804e-15 4.10722e-14 0)
(9.19836e-14 -3.62078e-14 0)
(-1.04016e-14 3.72989e-15 0)
(2.68006e-14 -8.33768e-14 0)
(7.40879e-14 -2.88406e-14 0)
(1.12438e-13 1.31183e-14 0)
(8.65204e-14 9.58867e-15 0)
(9.35637e-14 -3.89156e-14 0)
(-3.25142e-14 -7.8507e-14 0)
(-1.44316e-13 -8.0623e-14 0)
(1.14155e-11 -1.55355e-13 0)
(4.58637e-08 7.30822e-13 0)
(2.4993e-05 2.86234e-10 0)
(0.00219487 2.30914e-08 0)
(0.0462897 4.43128e-07 0)
(0.35074 3.13187e-06 0)
(1.35789 1.17794e-05 0)
(3.47612 3.02509e-05 0)
(6.90597 6.11503e-05 0)
(11.6665 0.000105348 0)
(17.6613 0.000162232 0)
(24.7342 0.000230285 0)
(32.71 0.000307638 0)
(41.4208 0.000392465 0)
(50.7181 0.000483166 0)
(60.4772 0.000578444 0)
(70.5974 0.000677282 0)
(80.9968 0.000778988 0)
(91.6093 0.000883641 0)
(102.381 0.000990125 0)
(113.263 0.00109877 0)
(124.208 0.00120975 0)
(135.159 0.00132096 0)
(146.04 0.00144158 0)
(156.737 0.00156238 0)
(167.081 0.00169148 0)
(176.829 0.00184253 0)
(185.663 0.00201229 0)
(193.221 0.00219725 0)
(199.19 0.00239882 0)
(203.424 0.00261215 0)
(206.028 0.00283084 0)
(207.346 0.00299078 0)
(207.828 0.00314101 0)
(207.952 0.00320341 0)
(207.633 0.00291132 0)
(207.033 0.0029427 0)
(206.48 0.00304865 0)
(206.066 0.00303393 0)
(205.775 0.00298839 0)
(205.565 0.0030151 0)
(205.382 0.00287852 0)
(205.187 0.00305003 0)
(204.977 0.0027852 0)
(204.787 0.00284337 0)
(204.639 0.00311115 0)
(204.512 0.0022336 0)
(204.359 0.0033596 0)
(204.154 0.00248565 0)
(203.931 0.00271301 0)
(203.75 0.00299908 0)
(203.616 0.00331063 0)
(203.48 0.00157481 0)
(203.283 0.00270556 0)
(203.036 0.00245209 0)
(202.824 0.00205253 0)
(202.686 0.00191256 0)
(202.557 0.00145636 0)
(202.437 0.00112773 0)
(202.219 0.000216602 0)
(201.875 -0.000296936 0)
(201.808 -0.000944443 0)
(201.839 -0.00261386 0)
(201.329 -0.00432907 0)
(201.261 -0.00544319 0)
(201.009 -0.00620217 0)
(201.119 -0.00687834 0)
(201.582 -0.0078447 0)
(201.991 -0.00821777 0)
(201.412 -0.00714844 0)
(200.473 -0.00533169 0)
(200.51 -0.00273461 0)
(199.751 -0.00176918 0)
(199.613 -0.00169832 0)
(199.471 -0.00170222 0)
(199.287 -0.00169299 0)
(199.099 -0.00166269 0)
(198.873 -0.00164082 0)
(198.546 -0.00157419 0)
(198.252 -0.00150581 0)
(198.018 -0.00148418 0)
(197.833 -0.00147832 0)
(197.618 -0.00146239 0)
(197.169 -0.00144489 0)
(195.882 -0.00143021 0)
(192.005 -0.00139149 0)
(180.622 -0.00126848 0)
(149.672 -0.000958072 0)
(84.7157 -0.000530897 0)
(18.866 -0.000126925 0)
(0.925106 -6.95738e-06 0)
(0.00687491 -5.80878e-08 0)
(5.43126e-06 -4.94425e-11 0)
(6.67838e-10 -8.56742e-14 0)
(2.16815e-13 -4.03462e-14 0)
(9.57714e-14 -1.20634e-14 0)
(6.45335e-14 -9.91609e-14 0)
(-8.70581e-14 -1.49165e-13 0)
(-4.37093e-14 -1.54807e-13 0)
(-7.59684e-15 -2.91075e-14 0)
(4.9239e-14 -8.75642e-14 0)
(6.43505e-14 -1.42001e-13 0)
(6.64407e-14 -2.09717e-13 0)
(9.25424e-14 -1.93691e-13 0)
(2.3844e-14 -1.60842e-13 0)
(-4.74232e-14 -1.93198e-13 0)
(-2.36272e-14 -1.81628e-13 0)
(-4.49219e-14 -1.74549e-13 0)
(-1.18218e-13 -1.79074e-13 0)
(-5.9571e-14 -1.62541e-13 0)
(-4.53255e-14 -1.32585e-13 0)
(-8.04358e-14 -6.93067e-14 0)
(-1.77131e-14 -1.10841e-13 0)
(-2.39365e-14 -2.33649e-13 0)
(2.61544e-14 -1.84804e-13 0)
(7.07869e-14 -1.878e-13 0)
(4.96239e-15 -1.1468e-13 0)
(-3.80978e-14 -1.24431e-13 0)
(-1.46369e-13 -7.9164e-14 0)
(-9.3968e-14 -1.85964e-14 0)
(1.41143e-15 1.02788e-13 0)
(2.50383e-14 5.87643e-14 0)
(-1.51231e-14 2.095e-14 0)
(8.59252e-15 1.2202e-13 0)
(1.36371e-13 5.737e-14 0)
(6.77497e-14 3.04604e-14 0)
(1.37237e-13 -3.76175e-14 0)
(1.08977e-13 -9.71473e-14 0)
(1.00521e-13 -9.70445e-14 0)
(1.58483e-13 -6.21151e-14 0)
(1.29128e-13 -4.65192e-14 0)
(4.09515e-14 -1.54024e-13 0)
(1.6511e-13 -1.60161e-13 0)
(6.58975e-14 -1.51027e-13 0)
(1.13607e-13 -1.38941e-13 0)
(5.32064e-14 -1.02017e-13 0)
(1.44092e-14 -4.18522e-14 0)
(3.0808e-14 -9.43525e-14 0)
(2.9127e-14 9.14825e-15 0)
(-2.14713e-14 -2.61436e-14 0)
(1.07217e-14 -1.41673e-14 0)
(7.28339e-14 -7.0768e-14 0)
(9.91596e-14 -9.08391e-14 0)
(9.58811e-14 -1.15213e-13 0)
(1.81483e-13 -7.33972e-14 0)
(1.4634e-13 -9.89514e-14 0)
(5.78473e-14 -6.86267e-14 0)
(-5.66516e-14 -1.15431e-13 0)
(-1.29895e-13 -2.0301e-14 0)
(-1.83838e-13 -1.02818e-13 0)
(-2.53821e-13 -5.39152e-14 0)
(-1.52909e-13 -2.72981e-15 0)
(-4.39978e-14 -6.30729e-14 0)
(-9.5154e-14 -6.55908e-14 0)
(-7.37955e-14 -1.02463e-14 0)
(7.38074e-14 6.88893e-14 0)
(-2.42128e-14 2.96294e-14 0)
(1.50512e-14 -1.22196e-14 0)
(-2.04268e-14 -1.68828e-14 0)
(3.11309e-14 -2.35966e-14 0)
(4.01517e-14 -5.77407e-14 0)
(1.21886e-13 -6.14271e-14 0)
(1.22482e-13 -1.69065e-14 0)
(1.21565e-14 -4.61083e-14 0)
(-1.02729e-13 -1.37139e-13 0)
(-1.16291e-13 -1.47626e-13 0)
(1.13606e-11 -7.53877e-14 0)
(4.58662e-08 3.27293e-13 0)
(2.49939e-05 2.18665e-10 0)
(0.00219492 1.80493e-08 0)
(0.0462904 3.56441e-07 0)
(0.350744 2.58194e-06 0)
(1.3579 9.91988e-06 0)
(3.47614 2.59443e-05 0)
(6.906 5.32148e-05 0)
(11.6665 9.26986e-05 0)
(17.6613 0.000143981 0)
(24.7342 0.000205845 0)
(32.7101 0.000276779 0)
(41.4209 0.000355285 0)
(50.7181 0.000440016 0)
(60.4773 0.000529854 0)
(70.5975 0.000623915 0)
(80.9968 0.000721532 0)
(91.6093 0.000822238 0)
(102.381 0.000925501 0)
(113.263 0.00103083 0)
(124.208 0.00113956 0)
(135.159 0.00125285 0)
(146.04 0.00137381 0)
(156.737 0.00149554 0)
(167.081 0.00161902 0)
(176.83 0.00175746 0)
(185.663 0.00191392 0)
(193.221 0.00208423 0)
(199.191 0.00226461 0)
(203.424 0.00244634 0)
(206.028 0.00262004 0)
(207.346 0.00277356 0)
(207.828 0.00292427 0)
(207.951 0.00306327 0)
(207.633 0.0028928 0)
(207.033 0.00282071 0)
(206.48 0.00287088 0)
(206.066 0.0029089 0)
(205.775 0.00286222 0)
(205.564 0.00287838 0)
(205.382 0.0027453 0)
(205.186 0.00293725 0)
(204.976 0.00267423 0)
(204.787 0.00270992 0)
(204.639 0.00293589 0)
(204.512 0.00206667 0)
(204.359 0.00317944 0)
(204.153 0.00227617 0)
(203.931 0.00259486 0)
(203.75 0.00252253 0)
(203.615 0.00304086 0)
(203.479 0.00108806 0)
(203.283 0.00255111 0)
(203.036 0.00218419 0)
(202.823 0.00177216 0)
(202.685 0.00158899 0)
(202.556 0.00106164 0)
(202.436 0.000869917 0)
(202.219 -9.45904e-05 0)
(201.874 -0.000486077 0)
(201.807 -0.000979206 0)
(201.839 -0.0019909 0)
(201.329 -0.00352023 0)
(201.262 -0.00479565 0)
(201.01 -0.0057075 0)
(201.121 -0.00630973 0)
(201.585 -0.00681762 0)
(201.994 -0.00684707 0)
(201.415 -0.00632472 0)
(200.474 -0.00493783 0)
(200.511 -0.00283524 0)
(199.751 -0.00214347 0)
(199.612 -0.00201431 0)
(199.471 -0.00188537 0)
(199.286 -0.00175559 0)
(199.099 -0.0016761 0)
(198.873 -0.00162624 0)
(198.546 -0.00156679 0)
(198.252 -0.00151825 0)
(198.018 -0.00149104 0)
(197.833 -0.00146243 0)
(197.618 -0.00142586 0)
(197.169 -0.00138467 0)
(195.882 -0.00133745 0)
(192.005 -0.00127601 0)
(180.622 -0.00117414 0)
(149.672 -0.000948832 0)
(84.7161 -0.00053269 0)
(18.8663 -0.000123055 0)
(0.925129 -6.49743e-06 0)
(0.00687517 -5.27008e-08 0)
(5.43156e-06 -4.38995e-11 0)
(6.68038e-10 -1.25201e-13 0)
(2.27431e-13 -2.42602e-14 0)
(2.08073e-14 -6.85191e-14 0)
(-9.50427e-15 -1.56219e-13 0)
(-9.71892e-14 -1.27009e-13 0)
(4.07841e-15 -1.4341e-13 0)
(4.51388e-14 -1.46651e-13 0)
(8.32749e-15 -9.20591e-14 0)
(-4.33433e-14 -1.92317e-13 0)
(4.63387e-15 -2.22771e-13 0)
(1.0911e-13 -2.9329e-13 0)
(9.31467e-15 -2.96315e-13 0)
(-6.936e-14 -2.94065e-13 0)
(-3.90317e-14 -2.62908e-13 0)
(-1.12046e-14 -3.58804e-13 0)
(-3.27372e-14 -3.23756e-13 0)
(-8.88888e-14 -3.16452e-13 0)
(-5.48605e-14 -3.52218e-13 0)
(1.39963e-14 -3.29691e-13 0)
(-4.97255e-14 -2.32163e-13 0)
(-5.60311e-14 -3.03586e-13 0)
(-1.56732e-14 -2.53021e-13 0)
(2.90354e-14 -3.14576e-13 0)
(8.46398e-14 -2.59108e-13 0)
(5.93221e-14 -2.01731e-13 0)
(-4.76982e-16 -1.36082e-13 0)
(-2.47126e-14 -5.16114e-14 0)
(-8.80257e-14 1.86042e-13 0)
(-4.66978e-15 9.65911e-14 0)
(2.73792e-14 7.33698e-14 0)
(1.88923e-14 5.34453e-14 0)
(7.54143e-14 4.93713e-14 0)
(4.5696e-14 4.43527e-14 0)
(1.02923e-13 2.30134e-14 0)
(1.53491e-13 -4.26839e-15 0)
(7.27781e-14 1.37602e-14 0)
(9.27901e-14 5.00595e-14 0)
(1.04477e-13 -4.10927e-14 0)
(3.88711e-15 8.35135e-15 0)
(1.13542e-13 -7.49176e-14 0)
(1.37908e-13 -1.06652e-13 0)
(1.71758e-13 -4.04827e-14 0)
(5.00456e-14 -3.78007e-14 0)
(9.31927e-14 2.8786e-14 0)
(6.17447e-14 5.01965e-14 0)
(3.7258e-14 -4.30054e-14 0)
(-3.35443e-14 2.1731e-14 0)
(-9.78577e-16 -1.83982e-16 0)
(1.11341e-14 -6.54498e-15 0)
(8.06809e-14 -8.33659e-14 0)
(1.23214e-13 -9.55537e-14 0)
(8.32157e-14 -1.07646e-13 0)
(1.50435e-13 -1.09167e-13 0)
(9.79148e-14 -5.44452e-14 0)
(-1.73639e-14 -2.72403e-14 0)
(-1.36351e-13 -5.61459e-14 0)
(-1.55952e-13 -4.63089e-14 0)
(-1.77811e-13 -7.72208e-15 0)
(-1.28122e-13 6.7279e-14 0)
(-8.61868e-14 1.0891e-13 0)
(-1.17684e-13 4.18719e-16 0)
(-3.31464e-15 8.27162e-16 0)
(-5.30485e-14 -3.12023e-14 0)
(-2.43868e-14 -7.51498e-14 0)
(4.96631e-14 -6.87368e-14 0)
(2.4888e-14 -3.27413e-14 0)
(-3.47442e-14 -6.54785e-14 0)
(3.81577e-14 -8.48566e-14 0)
(9.45954e-14 -8.47333e-14 0)
(1.12784e-13 -8.49656e-14 0)
(3.13982e-14 -4.96468e-14 0)
(-9.11246e-14 -2.97035e-14 0)
(-1.40332e-13 -2.84994e-14 0)
(1.14502e-11 -6.83381e-15 0)
(4.58678e-08 3.42584e-13 0)
(2.49946e-05 1.7312e-10 0)
(0.00219497 1.44782e-08 0)
(0.0462911 2.89662e-07 0)
(0.350747 2.12097e-06 0)
(1.35791 8.22543e-06 0)
(3.47616 2.17046e-05 0)
(6.90603 4.49478e-05 0)
(11.6666 7.91459e-05 0)
(17.6614 0.000124353 0)
(24.7343 0.000179829 0)
(32.7101 0.000244408 0)
(41.421 0.000316777 0)
(50.7182 0.000395659 0)
(60.4773 0.000479933 0)
(70.5976 0.000568676 0)
(80.9969 0.000661159 0)
(91.6094 0.00075682 0)
(102.381 0.000855222 0)
(113.263 0.000955969 0)
(124.208 0.0010599 0)
(135.159 0.0011688 0)
(146.04 0.00128452 0)
(156.737 0.00140609 0)
(167.081 0.00153229 0)
(176.83 0.00166931 0)
(185.663 0.00182365 0)
(193.221 0.00199469 0)
(199.191 0.00217658 0)
(203.424 0.00236018 0)
(206.028 0.0025332 0)
(207.346 0.00266688 0)
(207.828 0.00277389 0)
(207.951 0.00284661 0)
(207.633 0.00282898 0)
(207.033 0.00275826 0)
(206.48 0.00274835 0)
(206.066 0.00277567 0)
(205.775 0.00275435 0)
(205.564 0.00276031 0)
(205.382 0.00261798 0)
(205.186 0.00279413 0)
(204.976 0.00258618 0)
(204.787 0.00259083 0)
(204.639 0.00275792 0)
(204.511 0.00202668 0)
(204.359 0.00292016 0)
(204.153 0.00210754 0)
(203.931 0.00243674 0)
(203.749 0.00218589 0)
(203.615 0.00286491 0)
(203.479 0.000734131 0)
(203.283 0.00231489 0)
(203.036 0.00187719 0)
(202.822 0.00146759 0)
(202.684 0.00126618 0)
(202.556 0.000721 0)
(202.435 0.00060582 0)
(202.218 -0.000347302 0)
(201.874 -0.000625814 0)
(201.807 -0.00112402 0)
(201.838 -0.00190107 0)
(201.329 -0.00285093 0)
(201.262 -0.00400786 0)
(201.01 -0.00490428 0)
(201.121 -0.00542852 0)
(201.585 -0.0057707 0)
(201.994 -0.00567555 0)
(201.415 -0.00516635 0)
(200.475 -0.00415498 0)
(200.511 -0.00263447 0)
(199.751 -0.00221968 0)
(199.613 -0.00210509 0)
(199.471 -0.00195105 0)
(199.286 -0.00177378 0)
(199.099 -0.00163697 0)
(198.873 -0.00157149 0)
(198.546 -0.00151966 0)
(198.252 -0.00147181 0)
(198.018 -0.00142767 0)
(197.833 -0.0013854 0)
(197.618 -0.00134654 0)
(197.169 -0.00130555 0)
(195.882 -0.00125995 0)
(192.005 -0.00120641 0)
(180.622 -0.00111264 0)
(149.672 -0.000906487 0)
(84.7166 -0.000513104 0)
(18.8665 -0.000119062 0)
(0.925151 -6.27969e-06 0)
(0.00687543 -5.06877e-08 0)
(5.43184e-06 -4.20141e-11 0)
(6.68099e-10 -1.71688e-13 0)
(2.01822e-13 -1.15922e-13 0)
(-4.59867e-14 -1.91573e-13 0)
(-2.89582e-16 -2.21973e-13 0)
(-6.61436e-14 -1.80204e-13 0)
(-4.21264e-14 -1.27545e-13 0)
(2.82578e-14 -1.63796e-13 0)
(2.04051e-14 -1.26612e-13 0)
(-3.30168e-14 -1.51852e-13 0)
(-2.71907e-14 -1.55526e-13 0)
(2.39897e-14 -1.84e-13 0)
(5.64646e-15 -2.04615e-13 0)
(-2.66347e-14 -2.29398e-13 0)
(-1.13622e-13 -2.79899e-13 0)
(-7.80346e-14 -3.52426e-13 0)
(-2.13474e-14 -4.41361e-13 0)
(-1.30954e-13 -4.40805e-13 0)
(-5.6146e-14 -3.67933e-13 0)
(8.79568e-14 -3.36045e-13 0)
(5.76757e-17 -2.99298e-13 0)
(-1.45722e-14 -2.42535e-13 0)
(2.45154e-14 -2.36304e-13 0)
(3.98734e-14 -2.72688e-13 0)
(1.29997e-13 -3.62007e-13 0)
(1.42544e-13 -2.9983e-13 0)
(7.55908e-14 -2.32646e-13 0)
(2.79673e-14 -1.83389e-13 0)
(-4.50651e-14 1.61006e-13 0)
(-5.1535e-15 7.47417e-14 0)
(-3.87188e-14 6.35373e-14 0)
(2.34516e-15 3.60722e-14 0)
(1.13489e-13 4.88697e-15 0)
(2.22928e-14 -1.29132e-14 0)
(8.54078e-14 5.99859e-14 0)
(7.39168e-14 -2.06276e-15 0)
(1.5922e-13 3.00883e-14 0)
(1.16477e-13 -2.14544e-15 0)
(1.25681e-14 -1.38779e-14 0)
(6.73753e-14 -1.27777e-14 0)
(1.73446e-13 9.26524e-14 0)
(5.95064e-14 4.35531e-14 0)
(1.85311e-13 -1.50189e-14 0)
(1.43508e-13 7.36111e-14 0)
(9.56508e-14 2.97567e-14 0)
(2.48597e-14 8.18819e-14 0)
(-2.033e-15 -3.00175e-14 0)
(-2.53708e-14 -8.9122e-14 0)
(2.3304e-14 -3.80195e-14 0)
(-3.01244e-14 -2.94728e-14 0)
(-8.91912e-15 2.98841e-14 0)
(1.04744e-13 -8.89217e-14 0)
(1.78933e-13 -8.83613e-14 0)
(1.65607e-13 -2.20983e-16 0)
(7.29615e-14 -4.94014e-14 0)
(-5.48684e-14 1.87169e-14 0)
(-1.00497e-13 4.15013e-14 0)
(-1.95814e-13 4.08045e-14 0)
(-1.33705e-13 -1.42625e-14 0)
(-6.14457e-14 6.59927e-14 0)
(-4.06681e-14 9.41192e-14 0)
(-1.8722e-13 5.23412e-14 0)
(-9.69175e-14 -4.63375e-15 0)
(-3.14878e-14 -2.18932e-14 0)
(-9.86592e-14 -2.07893e-14 0)
(6.1387e-14 -1.34291e-16 0)
(2.82033e-14 -5.9836e-14 0)
(-2.04542e-14 1.04668e-15 0)
(5.79869e-14 3.91885e-15 0)
(6.60191e-14 2.14332e-14 0)
(1.13925e-13 7.25948e-15 0)
(2.81741e-14 1.81861e-14 0)
(-5.78089e-14 7.43083e-14 0)
(-9.41537e-14 2.16255e-14 0)
(1.13686e-11 1.11196e-13 0)
(4.58691e-08 2.43418e-13 0)
(2.49951e-05 1.30657e-10 0)
(0.002195 1.11099e-08 0)
(0.0462916 2.25898e-07 0)
(0.35075 1.68575e-06 0)
(1.35792 6.67199e-06 0)
(3.47617 1.7963e-05 0)
(6.90606 3.79056e-05 0)
(11.6666 6.78834e-05 0)
(17.6614 0.000108231 0)
(24.7343 0.000158452 0)
(32.7102 0.000217557 0)
(41.4211 0.000284369 0)
(50.7183 0.000357728 0)
(60.4774 0.000436605 0)
(70.5977 0.000520138 0)
(80.997 0.000607619 0)
(91.6095 0.000698482 0)
(102.381 0.000792295 0)
(113.263 0.000888907 0)
(124.208 0.000988818 0)
(135.159 0.00109359 0)
(146.04 0.00120491 0)
(156.737 0.0013237 0)
(167.082 0.00144962 0)
(176.83 0.0015844 0)
(185.663 0.00173278 0)
(193.221 0.00189621 0)
(199.191 0.00206979 0)
(203.424 0.00224366 0)
(206.029 0.00240454 0)
(207.346 0.00253521 0)
(207.828 0.00264593 0)
(207.951 0.00271824 0)
(207.633 0.00273215 0)
(207.033 0.00269462 0)
(206.48 0.00265895 0)
(206.066 0.00265475 0)
(205.775 0.00263349 0)
(205.564 0.00264935 0)
(205.382 0.00251181 0)
(205.186 0.00262602 0)
(204.976 0.00249362 0)
(204.786 0.00247542 0)
(204.639 0.00257546 0)
(204.511 0.00206419 0)
(204.359 0.0026597 0)
(204.153 0.00198866 0)
(203.931 0.00223719 0)
(203.749 0.00192378 0)
(203.615 0.00270503 0)
(203.479 0.000493742 0)
(203.282 0.00209141 0)
(203.035 0.0016284 0)
(202.822 0.00115824 0)
(202.684 0.000927866 0)
(202.555 0.000389052 0)
(202.435 0.000331298 0)
(202.217 -0.000620348 0)
(201.873 -0.000776227 0)
(201.806 -0.00125522 0)
(201.837 -0.00186888 0)
(201.328 -0.00292006 0)
(201.261 -0.00358268 0)
(201.01 -0.00402032 0)
(201.121 -0.0042575 0)
(201.584 -0.00439982 0)
(201.994 -0.00424827 0)
(201.415 -0.00401806 0)
(200.475 -0.00345097 0)
(200.512 -0.00248544 0)
(199.751 -0.00213862 0)
(199.613 -0.00202195 0)
(199.471 -0.00188692 0)
(199.286 -0.00173487 0)
(199.099 -0.00159418 0)
(198.873 -0.00151986 0)
(198.546 -0.00146975 0)
(198.252 -0.00142213 0)
(198.018 -0.00138083 0)
(197.833 -0.00134187 0)
(197.618 -0.00130364 0)
(197.169 -0.00126507 0)
(195.882 -0.00122496 0)
(192.005 -0.0011736 0)
(180.623 -0.0010792 0)
(149.672 -0.000873836 0)
(84.7171 -0.000490507 0)
(18.8668 -0.000113188 0)
(0.925173 -5.9521e-06 0)
(0.00687567 -4.7965e-08 0)
(5.4321e-06 -3.963e-11 0)
(6.68199e-10 -2.44673e-13 0)
(1.87607e-13 -2.36063e-13 0)
(-1.25956e-13 -2.75709e-13 0)
(-5.45388e-14 -2.06044e-13 0)
(4.86075e-14 -1.64365e-13 0)
(3.16731e-14 -5.86386e-14 0)
(5.81492e-14 -2.39256e-14 0)
(1.76451e-14 -3.44944e-14 0)
(-7.18962e-14 -8.54187e-14 0)
(-4.2555e-14 -1.38363e-13 0)
(1.3376e-14 -1.24212e-13 0)
(-2.19296e-14 -4.86107e-14 0)
(-1.1479e-13 -1.13428e-13 0)
(-1.42847e-13 -2.61404e-13 0)
(-1.32948e-13 -2.70914e-13 0)
(-8.71107e-14 -3.25731e-13 0)
(-3.95288e-14 -3.0221e-13 0)
(2.92976e-14 -2.03035e-13 0)
(4.78298e-14 -1.95371e-13 0)
(3.62288e-16 -2.1455e-13 0)
(-2.92051e-15 -1.57946e-13 0)
(3.03076e-14 -2.29924e-13 0)
(2.22502e-14 -1.86007e-13 0)
(8.22882e-14 -2.82022e-13 0)
(1.7771e-13 -2.21351e-13 0)
(9.80502e-14 -2.52904e-13 0)
(7.33251e-14 -1.78923e-13 0)
(-1.0357e-15 6.64867e-14 0)
(-1.00865e-13 7.17487e-14 0)
(-5.99051e-14 -8.99381e-15 0)
(3.28231e-14 6.9115e-14 0)
(4.27521e-14 3.52136e-14 0)
(1.38873e-13 4.29674e-14 0)
(6.15009e-14 5.38586e-14 0)
(8.96589e-14 2.51478e-14 0)
(1.08662e-13 9.1029e-15 0)
(8.1386e-14 3.66578e-14 0)
(5.55733e-14 -2.05451e-14 0)
(1.62312e-13 2.13863e-15 0)
(1.64045e-13 -1.30056e-15 0)
(7.73047e-14 4.84219e-14 0)
(1.26157e-13 7.95788e-15 0)
(1.6961e-13 -5.9139e-14 0)
(5.45275e-14 -8.98281e-14 0)
(-5.02218e-15 -1.05059e-13 0)
(-6.08628e-14 -1.75035e-13 0)
(2.50711e-14 -1.82079e-13 0)
(5.9844e-14 -1.49508e-13 0)
(3.07835e-14 -8.59999e-14 0)
(5.27408e-15 -7.01176e-14 0)
(3.09981e-14 2.86995e-14 0)
(1.53775e-13 -1.07486e-13 0)
(1.19983e-13 -1.14114e-13 0)
(1.53484e-13 -1.03164e-13 0)
(4.13942e-15 -6.19528e-15 0)
(-8.73284e-14 -2.89347e-14 0)
(-1.67889e-13 -2.60844e-14 0)
(-1.39733e-13 3.091e-14 0)
(-8.19605e-14 1.70523e-14 0)
(-1.874e-14 1.42037e-14 0)
(-1.34884e-13 2.41345e-14 0)
(-1.42639e-13 6.7909e-14 0)
(-5.57182e-14 1.05204e-14 0)
(-1.92497e-14 6.0059e-14 0)
(2.47902e-14 3.25044e-14 0)
(7.61267e-15 1.71921e-14 0)
(5.01784e-14 -3.6745e-16 0)
(9.28422e-14 8.30424e-14 0)
(5.947e-14 8.6488e-14 0)
(5.32766e-14 8.17514e-14 0)
(6.65153e-14 8.5688e-14 0)
(-6.53679e-14 8.34279e-14 0)
(-1.54427e-13 5.87744e-14 0)
(1.1544e-11 1.20033e-13 0)
(4.58699e-08 2.20253e-13 0)
(2.49955e-05 9.41915e-11 0)
(0.00219503 8.17994e-09 0)
(0.046292 1.69834e-07 0)
(0.350753 1.29792e-06 0)
(1.35793 5.26339e-06 0)
(3.47619 1.44914e-05 0)
(6.90608 3.11821e-05 0)
(11.6666 5.67924e-05 0)
(17.6615 9.18972e-05 0)
(24.7344 0.00013632 0)
(32.7102 0.00018938 0)
(41.4211 0.000250143 0)
(50.7184 0.000317601 0)
(60.4775 0.000390804 0)
(70.5977 0.000468908 0)
(80.9971 0.00055119 0)
(91.6096 0.000637072 0)
(102.381 0.000726128 0)
(113.263 0.000818221 0)
(124.208 0.000913659 0)
(135.159 0.00101358 0)
(146.04 0.00111974 0)
(156.737 0.00123384 0)
(167.082 0.00135701 0)
(176.83 0.00149007 0)
(185.663 0.00163527 0)
(193.221 0.00179383 0)
(199.191 0.00196195 0)
(203.425 0.00212995 0)
(206.029 0.0022846 0)
(207.346 0.00241159 0)
(207.828 0.00251793 0)
(207.951 0.00259919 0)
(207.633 0.00262678 0)
(207.033 0.0026024 0)
(206.48 0.00256839 0)
(206.066 0.00255418 0)
(205.775 0.00252748 0)
(205.564 0.00253548 0)
(205.382 0.00242836 0)
(205.186 0.00246588 0)
(204.976 0.00240355 0)
(204.786 0.0023558 0)
(204.639 0.00239755 0)
(204.511 0.00205433 0)
(204.359 0.00244371 0)
(204.153 0.00189483 0)
(203.931 0.00204277 0)
(203.749 0.00171097 0)
(203.615 0.00252798 0)
(203.479 0.000267022 0)
(203.282 0.0019376 0)
(203.035 0.00147094 0)
(202.822 0.000938191 0)
(202.684 0.000682956 0)
(202.555 0.000165142 0)
(202.434 0.000139554 0)
(202.217 -0.00077326 0)
(201.872 -0.00090541 0)
(201.805 -0.00136645 0)
(201.837 -0.00181587 0)
(201.327 -0.00254773 0)
(201.261 -0.00320374 0)
(201.009 -0.00365266 0)
(201.12 -0.00368899 0)
(201.584 -0.00365945 0)
(201.994 -0.00348464 0)
(201.415 -0.00321648 0)
(200.475 -0.00287435 0)
(200.512 -0.00223262 0)
(199.751 -0.00200965 0)
(199.613 -0.00192001 0)
(199.471 -0.00181255 0)
(199.286 -0.00168568 0)
(199.099 -0.00156175 0)
(198.873 -0.00149107 0)
(198.546 -0.00144198 0)
(198.252 -0.00139496 0)
(198.018 -0.00134949 0)
(197.833 -0.00130723 0)
(197.618 -0.00126652 0)
(197.169 -0.00122415 0)
(195.882 -0.0011775 0)
(192.005 -0.00111919 0)
(180.623 -0.00102243 0)