/*--------------------------------*- C++ -*----------------------------------*\
  =========                 |
  \\      /  F ield         | OpenFOAM: The Open Source CFD Toolbox
   \\    /   O peration     | Website:  https://openfoam.org
    \\  /    A nd           | Version:  13
     \\/     M anipulation  |
\*---------------------------------------------------------------------------*/
FoamFile
{
    format      ascii;
    class       surfaceScalarField;
    location    "0.0003";
    object      phi;
}
// * * * * * * * * * * * * * * * * * * * * * * * * * * * * * * * * * * * * * //

dimensions      [1 0 -1 0 0 0 0];

internalField   nonuniform List<scalar> 
66301
(
1.11022e-16
0
-4.44089e-16
-1.11022e-16
0
0
4.44089e-16
1.11022e-16
4.44089e-16
-3.33067e-16
0
-1.11022e-16
0
1.11022e-16
0
-1.11022e-16
0
-1.11022e-16
2.22045e-16
0
0
-4.44089e-16
0
-2.22045e-16
-4.44089e-16
-2.22045e-16
-7.77156e-16
-2.22045e-16
-3.33067e-16
1.11022e-16
3.33067e-16
2.22045e-16
1.11022e-16
-1.11022e-16
-1.11022e-16
-2.22045e-16
-1.11022e-16
-2.22045e-16
-4.44089e-16
-4.44089e-16
-3.33067e-16
0
3.33067e-16
-1.11022e-16
5.55112e-16
-3.33067e-16
1.11022e-16
-2.22045e-16
0
0
1.11022e-16
0
5.55112e-16
-1.11022e-16
-1.11022e-16
-5.55112e-16
-1.11022e-16
-3.33067e-16
0
-1.11022e-16
0
0
-1.11022e-16
-1.11022e-16
1.11022e-16
2.22045e-16
2.22045e-16
-2.22045e-16
-1.11022e-16
-3.33067e-16
2.22045e-16
-1.11022e-16
-2.22045e-16
-1.11022e-16
1.11022e-16
-1.11022e-16
-5.55112e-16
-2.22045e-16
-4.44089e-16
2.22045e-16
1.11022e-16
0
0
-2.22045e-16
0
-2.22045e-16
-1.11022e-16
-1.11022e-16
3.33067e-16
2.22045e-16
-3.33067e-16
-2.22045e-16
3.33067e-16
2.22045e-16
-1.11022e-16
1.11022e-16
2.22045e-16
-1.11022e-16
1.11022e-16
-2.22045e-16
1.11022e-16
-2.22045e-16
0
2.22045e-16
0
0
-3.33067e-16
1.11022e-16
3.33067e-16
1.11022e-16
-1.11022e-16
-3.33067e-16
-2.22045e-16
-4.44089e-16
1.11022e-16
-1.11022e-16
1.11022e-16
1.11022e-16
0
1.11022e-16
0
1.11022e-16
-2.22045e-16
0
-5.55112e-16
-1.11022e-16
2.22045e-16
3.33067e-16
1.11022e-16
2.22045e-16
1.11022e-16
-2.22045e-16
2.22045e-16
-2.22045e-16
0
0
0
-2.22045e-16
-1.11022e-16
0
-5.55112e-16
-3.33067e-16
-4.44089e-16
-1.11022e-16
0
-1.11022e-16
2.10687e-12
0
6.80656e-09
1.94289e-14
2.33426e-06
1.03361e-11
0.000123071
6.51116e-10
0.00156861
9.69258e-09
0.00774073
5.50561e-08
0.0216425
1.70157e-07
0.0435133
3.65039e-07
0.0717165
6.2526e-07
0.104065
9.26947e-07
0.13851
1.24869e-06
0.173374
1.57516e-06
0.207344
1.89764e-06
0.239325
2.21564e-06
0.268222
2.53776e-06
0.292717
2.85608e-06
0.311294
3.21714e-06
0.322868
3.74602e-06
0.327875
4.16627e-06
0.328712
5.69152e-06
0.327791
3.88703e-06
0.326225
4.71307e-06
0.326085
4.52213e-06
0.326897
5.05454e-06
0.326903
3.42886e-06
0.325175
4.25686e-06
0.322739
3.64442e-06
0.322309
1.48579e-06
0.326673
6.63017e-07
0.335227
-1.12569e-06
0.359715
-4.03264e-06
0.41557
-5.47601e-06
0.512682
-6.33428e-06
0.631594
-6.88858e-06
0.724651
-7.95431e-06
0.772067
-6.93311e-06
0.778324
-4.17932e-06
0.77377
-5.77524e-06
0.753255
-6.76462e-06
0.693528
-6.97527e-06
0.548835
-6.27259e-06
0.277262
-4.43606e-06
0.0480615
-1.58182e-06
0.00149033
-1.88561e-07
5.35223e-06
-4.99303e-09
1.58239e-09
-1.40793e-11
1.06692e-13
-4.44089e-15
5.55112e-17
-6.66134e-16
-1.11022e-16
-3.33067e-16
-1.11022e-16
-3.88578e-16
-2.77556e-16
-6.66134e-16
-3.33067e-16
-7.21645e-16
-4.44089e-16
-6.10623e-16
-2.22045e-16
-4.996e-16
-4.44089e-16
-4.996e-16
2.22045e-16
-1.66533e-16
0
-4.996e-16
-2.22045e-16
-4.996e-16
-4.44089e-16
-3.88578e-16
2.22045e-16
-3.88578e-16
-2.22045e-16
-3.33067e-16
2.22045e-16
0
-1.66533e-16
-2.77556e-16
4.44089e-16
1.66533e-16
3.88578e-16
-3.33067e-16
5.55112e-17
-4.996e-16
1.66533e-16
-4.996e-16
-1.11022e-16
-6.10623e-16
-3.33067e-16
-5.55112e-16
-5.55112e-16
-1.11022e-16
-5.55112e-17
2.22045e-16
1.11022e-16
-2.77556e-16
1.11022e-16
0
-3.33067e-16
-1.66533e-16
-5.55112e-16
-2.77556e-16
-2.77556e-16
3.33067e-16
-2.77556e-16
5.55112e-16
-1.11022e-16
3.88578e-16
-3.88578e-16
-1.11022e-16
5.55112e-17
2.22045e-16
4.44089e-16
0
-1.66533e-16
-2.22045e-16
-4.996e-16
-3.33067e-16
-1.66533e-16
-1.11022e-16
2.77556e-16
1.66533e-16
0
-2.22045e-16
0
-2.77556e-16
3.88578e-16
-2.22045e-16
3.88578e-16
-3.88578e-16
1.11022e-16
-3.33067e-16
0
-3.88578e-16
-1.11022e-16
-3.88578e-16
-5.55112e-17
0
0
-1.11022e-16
1.11022e-16
0
2.22045e-16
1.11022e-16
4.44089e-16
7.77156e-16
5.55112e-16
2.22045e-16
1.11022e-16
-2.22045e-16
1.11022e-16
0
1.11022e-16
-1.11022e-16
0
-2.22045e-16
1.11022e-16
1.11022e-16
-1.11022e-16
1.11022e-16
-2.22045e-16
-1.11022e-16
-2.22045e-16
-4.44089e-16
-4.44089e-16
-1.11022e-16
1.11022e-16
-1.11022e-16
-3.33067e-16
0
0
0
0
-1.11022e-16
-5.55112e-16
-2.22045e-16
-6.66134e-16
-1.11022e-16
-5.55112e-16
-1.11022e-16
-6.66134e-16
2.22045e-16
-3.33067e-16
2.22045e-16
1.11022e-16
0
-1.11022e-16
0
0
0
-3.33067e-16
1.11022e-16
-2.22045e-16
1.11022e-16
-1.11022e-16
0
-1.11022e-16
0
0
2.22045e-16
-2.22045e-16
-1.11022e-16
0
2.22045e-16
0
0
-1.11022e-16
2.22045e-16
-2.22045e-16
-1.11022e-16
-2.22045e-16
0
0
-1.11022e-16
0
-4.44089e-16
0
-2.22045e-16
2.22045e-16
-2.22045e-16
-4.44089e-16
1.11022e-16
-1.11022e-16
4.44089e-16
-1.11022e-16
-1.11022e-16
0
3.33067e-16
0
0
0
-2.22045e-16
0
2.22045e-16
-1.11022e-16
2.22045e-16
-4.44089e-16
2.22045e-16
-2.22045e-16
-1.11022e-16
-1.11022e-16
0
-1.11022e-16
-4.44089e-16
1.11022e-16
-1.11022e-16
3.33067e-16
0
-4.44089e-16
2.22045e-16
0
0
-1.11022e-16
-1.11022e-16
2.22045e-16
0
4.44089e-16
-3.33067e-16
1.11022e-16
-2.22045e-16
2.22045e-16
-3.33067e-16
-2.22045e-16
0
-1.11022e-16
-1.11022e-16
-2.22045e-16
1.11022e-16
-2.22045e-16
2.22045e-16
-2.22045e-16
1.11022e-16
-2.22045e-16
0
-2.22045e-16
-2.22045e-16
-5.55112e-16
-3.33067e-16
-5.55112e-16
-3.33067e-16
-2.22045e-16
-4.44089e-16
-4.44089e-16
2.10754e-12
-4.44089e-16
6.80683e-09
1.09912e-14
2.33434e-06
4.8932e-12
0.000123074
3.3141e-10
0.00156865
5.49766e-09
0.0077409
3.41118e-08
0.0216429
1.13933e-07
0.0435143
2.61435e-07
0.0717183
4.73691e-07
0.104068
7.34905e-07
0.138514
1.02649e-06
0.173381
1.33314e-06
0.207353
1.64551e-06
0.239335
1.96233e-06
0.268235
2.29441e-06
0.292733
2.62544e-06
0.311314
2.97325e-06
0.322891
3.40446e-06
0.327903
3.91017e-06
0.328748
4.59445e-06
0.32783
4.44572e-06
0.326267
4.29842e-06
0.326131
4.55113e-06
0.326949
3.92154e-06
0.32696
3.40366e-06
0.325237
3.38492e-06
0.322805
3.01744e-06
0.322376
1.73712e-06
0.32674
9.52848e-07
0.335292
-5.87073e-07
0.359774
-3.40908e-06
0.415622
-5.13925e-06
0.512727
-7.26332e-06
0.631638
-9.13485e-06
0.724696
-9.53028e-06
0.772108
-7.04619e-06
0.778361
-5.74554e-06
0.773802
-6.04149e-06
0.753281
-6.26293e-06
0.693546
-5.96546e-06
0.548846
-4.91389e-06
0.277268
-2.7565e-06
0.0480627
-8.88022e-07
0.00149038
-9.64216e-08
5.35246e-06
-2.18391e-09
1.58247e-09
-6.4076e-12
1.07192e-13
-3.05311e-15
5.55112e-17
-8.88178e-16
-3.33067e-16
-5.55112e-16
-3.88578e-16
-4.44089e-16
-3.33067e-16
-7.21645e-16
-5.55112e-17
-7.77156e-16
-5.55112e-17
-7.21645e-16
-5.55112e-17
-6.66134e-16
-1.11022e-16
-7.77156e-16
-1.66533e-16
-7.21645e-16
0
-3.88578e-16
-1.66533e-16
-4.996e-16
-2.77556e-16
-4.996e-16
3.88578e-16
-3.33067e-16
0
-3.33067e-16
5.55112e-17
-2.77556e-16
1.66533e-16
-3.88578e-16
5.55112e-17
-4.996e-16
2.22045e-16
-2.22045e-16
1.11022e-16
-4.44089e-16
1.66533e-16
-3.33067e-16
0
-9.4369e-16
-1.66533e-16
-8.88178e-16
-2.77556e-16
-4.44089e-16
-4.44089e-16
-4.44089e-16
1.66533e-16
-2.22045e-16
-1.66533e-16
-4.996e-16
-3.33067e-16
-2.22045e-16
-5.55112e-17
5.55112e-17
-2.77556e-16
-2.22045e-16
-3.88578e-16
-1.66533e-16
-3.88578e-16
1.11022e-16
5.55112e-17
2.22045e-16
-2.22045e-16
1.11022e-16
2.22045e-16
3.33067e-16
-2.77556e-16
0
-3.33067e-16
5.55112e-17
1.66533e-16
-5.55112e-17
-5.55112e-17
-2.77556e-16
-1.11022e-16
-3.33067e-16
-5.55112e-17
-2.77556e-16
3.88578e-16
-3.33067e-16
4.996e-16
-6.66134e-16
-5.55112e-17
-6.10623e-16
0
-2.77556e-16
1.66533e-16
0
-4.996e-16
3.33067e-16
1.11022e-16
-2.22045e-16
0
2.22045e-16
3.33067e-16
2.22045e-16
2.22045e-16
5.55112e-16
4.44089e-16
-1.11022e-16
2.22045e-16
-2.22045e-16
1.11022e-16
0
0
0
0
-1.11022e-16
0
0
0
0
0
-4.44089e-16
0
-1.11022e-16
-3.33067e-16
-5.55112e-16
0
2.22045e-16
3.33067e-16
0
-1.11022e-16
-7.77156e-16
-2.22045e-16
-4.44089e-16
0
-2.22045e-16
2.22045e-16
0
0
5.55112e-16
1.11022e-16
1.11022e-16
1.11022e-16
1.11022e-16
1.11022e-16
1.11022e-16
-1.11022e-16
0
2.22045e-16
0
-1.11022e-16
1.11022e-16
0
2.22045e-16
0
1.11022e-16
-2.22045e-16
0
-1.11022e-16
3.33067e-16
-1.11022e-16
0
-3.33067e-16
-2.22045e-16
-3.33067e-16
2.22045e-16
1.11022e-16
0
0
1.11022e-16
-1.11022e-16
-3.33067e-16
0
-2.22045e-16
2.22045e-16
-2.22045e-16
0
-6.66134e-16
0
2.22045e-16
2.22045e-16
0
0
3.33067e-16
0
-1.11022e-16
-2.22045e-16
3.33067e-16
1.11022e-16
0
0
-2.22045e-16
-1.11022e-16
-1.11022e-16
0
4.44089e-16
0
3.33067e-16
-1.11022e-16
1.11022e-16
-5.55112e-16
1.11022e-16
-4.44089e-16
-1.11022e-16
-3.33067e-16
-5.55112e-16
-1.11022e-16
1.11022e-16
1.11022e-16
1.11022e-16
-1.11022e-16
1.11022e-16
0
0
0
-2.22045e-16
-2.22045e-16
-2.22045e-16
-4.44089e-16
-4.44089e-16
-2.22045e-16
-2.22045e-16
-1.11022e-16
-1.11022e-16
-4.44089e-16
-1.11022e-16
-2.22045e-16
3.33067e-16
-1.11022e-16
2.22045e-16
-3.33067e-16
0
-2.22045e-16
-3.33067e-16
-2.22045e-16
-5.55112e-16
-2.22045e-16
-1.11022e-16
-1.11022e-16
-3.33067e-16
-2.22045e-16
-4.44089e-16
-1.11022e-16
2.10798e-12
-1.11022e-16
6.80712e-09
5.66214e-15
2.33441e-06
2.75335e-12
0.000123077
2.007e-10
0.00156867
3.49188e-09
0.00774096
2.26115e-08
0.021643
7.90539e-08
0.0435144
1.89972e-07
0.0717185
3.59184e-07
0.104068
5.7787e-07
0.138514
8.31529e-07
0.173381
1.1066e-06
0.207353
1.39407e-06
0.239336
1.69118e-06
0.268236
2.00274e-06
0.292734
2.33337e-06
0.311314
2.69021e-06
0.322892
3.04762e-06
0.327903
3.5623e-06
0.328748
3.60432e-06
0.32783
4.27488e-06
0.326267
3.90343e-06
0.326131
3.85869e-06
0.326949
3.51973e-06
0.32696
3.18336e-06
0.325237
2.77094e-06
0.322805
2.10282e-06
0.322376
1.6593e-06
0.32674
9.33779e-07
0.335291
-5.58001e-07
0.359773
-2.90978e-06
0.415619
-4.46273e-06
0.512724
-6.46005e-06
0.631636
-8.1939e-06
0.724697
-8.00573e-06
0.77211
-6.54443e-06
0.778361
-5.72903e-06
0.773802
-5.75627e-06
0.753281
-5.41791e-06
0.693545
-4.84597e-06
0.548846
-3.98191e-06
0.277269
-2.25263e-06
0.0480634
-7.11642e-07
0.00149042
-7.32078e-08
5.35269e-06
-1.51222e-09
1.58257e-09
-3.92358e-12
1.07137e-13
-1.33227e-15
2.22045e-16
-5.55112e-17
-3.33067e-16
-6.66134e-16
-6.10623e-16
-6.66134e-16
-2.77556e-16
-4.44089e-16
-1.66533e-16
-4.44089e-16
-2.22045e-16
-4.44089e-16
-2.77556e-16
-4.44089e-16
-1.11022e-16
-2.77556e-16
1.66533e-16
-2.22045e-16
-1.66533e-16
-6.66134e-16
-3.33067e-16
-6.66134e-16
-1.11022e-16
-3.88578e-16
1.66533e-16
-3.33067e-16
-1.11022e-16
-2.77556e-16
0
-3.33067e-16
-5.55112e-17
-3.88578e-16
1.66533e-16
-2.22045e-16
2.77556e-16
-4.44089e-16
0
-6.10623e-16
-2.77556e-16
-5.55112e-16
0
-6.66134e-16
1.66533e-16
-3.88578e-16
-3.88578e-16
-4.996e-16
-3.88578e-16
-1.66533e-16
0
-2.22045e-16
2.22045e-16
-2.77556e-16
-5.55112e-17
-5.55112e-16
-2.77556e-16
-3.88578e-16
-3.33067e-16
-3.33067e-16
-5.55112e-17
-4.996e-16
-5.55112e-17
-2.77556e-16
-1.66533e-16
0
-5.55112e-17
0
0
-1.66533e-16
-3.88578e-16
-1.11022e-16
-6.10623e-16
-5.55112e-17
-1.66533e-16
1.11022e-16
5.55112e-17
2.22045e-16
-1.66533e-16
-1.66533e-16
1.66533e-16
-3.33067e-16
0
-4.996e-16
3.33067e-16
-6.10623e-16
2.77556e-16
-6.10623e-16
1.11022e-16
-4.44089e-16
-2.22045e-16
-2.77556e-16
-3.88578e-16
2.22045e-16
4.44089e-16
0
1.11022e-16
4.44089e-16
3.33067e-16
3.33067e-16
1.11022e-16
3.33067e-16
4.44089e-16
0
0
-2.22045e-16
-1.11022e-16
1.11022e-16
1.11022e-16
-1.11022e-16
2.22045e-16
-1.11022e-16
1.11022e-16
-2.22045e-16
1.11022e-16
-1.11022e-16
2.22045e-16
-3.33067e-16
0
0
0
-1.11022e-16
-1.11022e-16
-3.33067e-16
0
-1.11022e-16
2.22045e-16
-2.22045e-16
-3.33067e-16
-2.22045e-16
-5.55112e-16
-2.22045e-16
-2.22045e-16
2.22045e-16
2.22045e-16
1.11022e-16
2.22045e-16
2.22045e-16
2.22045e-16
2.22045e-16
1.11022e-16
0
0
-1.11022e-16
2.22045e-16
0
2.22045e-16
1.11022e-16
4.44089e-16
3.33067e-16
1.11022e-16
0
2.22045e-16
0
0
-1.11022e-16
2.22045e-16
4.44089e-16
-2.22045e-16
2.22045e-16
-1.11022e-16
2.22045e-16
0
0
-1.11022e-16
-1.11022e-16
1.11022e-16
0
0
-1.11022e-16
-1.11022e-16
-2.22045e-16
-2.22045e-16
-2.22045e-16
0
-2.22045e-16
-3.33067e-16
0
1.11022e-16
0
4.44089e-16
1.11022e-16
3.33067e-16
1.11022e-16
2.22045e-16
-1.11022e-16
2.22045e-16
-1.11022e-16
2.22045e-16
0
2.22045e-16
1.11022e-16
0
1.11022e-16
3.33067e-16
1.11022e-16
2.22045e-16
0
-2.22045e-16
3.33067e-16
2.22045e-16
0
2.22045e-16
-1.11022e-16
1.11022e-16
5.55112e-16
4.44089e-16
1.11022e-16
1.11022e-16
-2.22045e-16
-1.11022e-16
-2.22045e-16
0
-2.22045e-16
-2.22045e-16
-2.22045e-16
0
-4.44089e-16
0
-1.11022e-16
2.22045e-16
1.11022e-16
2.22045e-16
2.22045e-16
2.22045e-16
2.22045e-16
1.11022e-16
1.11022e-16
-1.11022e-16
0
0
-5.55112e-16
-1.11022e-16
-4.44089e-16
1.11022e-16
-2.22045e-16
2.22045e-16
0
1.11022e-16
2.10709e-12
-1.11022e-16
6.80731e-09
2.9976e-15
2.33446e-06
1.60238e-12
0.000123078
1.22809e-10
0.00156869
2.2373e-09
0.00774101
1.51142e-08
0.0216432
5.4954e-08
0.0435146
1.36938e-07
0.0717187
2.67713e-07
0.104068
4.43933e-07
0.138515
6.56041e-07
0.173381
8.93477e-07
0.207353
1.14847e-06
0.239336
1.4179e-06
0.268236
1.70389e-06
0.292734
2.01144e-06
0.311314
2.35232e-06
0.322892
2.66579e-06
0.327904
3.15473e-06
0.328748
3.07408e-06
0.32783
3.7552e-06
0.326267
3.53258e-06
0.32613
3.32685e-06
0.326949
3.09237e-06
0.32696
2.80225e-06
0.325237
2.37394e-06
0.322804
1.60636e-06
0.322376
1.30692e-06
0.326739
5.78587e-07
0.335291
-4.90211e-07
0.359772
-2.57114e-06
0.415618
-3.75266e-06
0.512723
-4.90516e-06
0.631635
-5.8554e-06
0.724697
-5.94609e-06
0.77211
-5.61551e-06
0.778361
-5.23836e-06
0.773801
-5.02674e-06
0.75328
-4.61583e-06
0.693546
-4.11918e-06
0.548847
-3.31503e-06
0.277271
-1.96814e-06
0.0480641
-6.05394e-07
0.00149045
-5.99747e-08
5.35288e-06
-1.19947e-09
1.58264e-09
-2.99155e-12
1.06637e-13
-1.22125e-15
2.77556e-16
-5.55112e-17
-1.66533e-16
-6.10623e-16
-3.33067e-16
-7.77156e-16
-1.66533e-16
-6.66134e-16
-1.11022e-16
-4.996e-16
1.11022e-16
-5.55112e-16
-1.66533e-16
-2.77556e-16
-1.66533e-16
-4.996e-16
-2.77556e-16
-6.66134e-16
-5.55112e-17
-3.33067e-16
-5.55112e-17
-6.10623e-16
5.55112e-17
-6.10623e-16
-5.55112e-17
-6.66134e-16
0
-2.77556e-16
0
-6.66134e-16
5.55112e-17
-6.10623e-16
-1.11022e-16
-5.55112e-16
0
-4.996e-16
1.11022e-16
-6.10623e-16
-2.22045e-16
-6.10623e-16
3.88578e-16
-3.88578e-16
5.55112e-17
-4.996e-16
2.22045e-16
-5.55112e-16
-3.33067e-16
-4.44089e-16
-2.22045e-16
-2.77556e-16
-1.11022e-16
-4.44089e-16
-1.66533e-16
-3.88578e-16
-1.66533e-16
-3.88578e-16
-4.44089e-16
-4.44089e-16
3.88578e-16
-3.33067e-16
0
-4.996e-16
-2.22045e-16
-3.88578e-16
-2.22045e-16
-4.996e-16
5.55112e-17
-3.33067e-16
-3.33067e-16
-4.44089e-16
-4.996e-16
-3.33067e-16
0
-2.77556e-16
-2.77556e-16
-1.11022e-16
-4.44089e-16
1.11022e-16
-5.55112e-17
0
0
-1.66533e-16
3.33067e-16
-2.22045e-16
3.33067e-16
-1.11022e-16
2.77556e-16
-1.66533e-16
0
-3.33067e-16
-2.77556e-16
1.11022e-16
0
2.22045e-16
-1.11022e-16
5.55112e-16
-2.22045e-16
6.66134e-16
-2.22045e-16
0
-2.22045e-16
-3.33067e-16
0
-1.11022e-16
3.33067e-16
1.11022e-16
2.22045e-16
-1.11022e-16
2.22045e-16
0
2.22045e-16
-2.22045e-16
1.11022e-16
-1.11022e-16
0
-1.11022e-16
1.11022e-16
-1.11022e-16
0
-2.22045e-16
-2.22045e-16
0
0
-2.22045e-16
-2.22045e-16
-3.33067e-16
-1.11022e-16
0
-1.11022e-16
5.55112e-16
-2.22045e-16
1.11022e-16
0
1.11022e-16
1.11022e-16
2.22045e-16
1.11022e-16
1.11022e-16
5.55112e-16
0
6.66134e-16
0
5.55112e-16
0
7.77156e-16
-1.11022e-16
4.44089e-16
0
2.22045e-16
0
1.11022e-16
1.11022e-16
1.11022e-16
-2.22045e-16
1.11022e-16
3.33067e-16
0
2.22045e-16
0
1.11022e-16
-3.33067e-16
4.44089e-16
0
-2.22045e-16
-1.11022e-16
0
-1.11022e-16
-6.66134e-16
0
-2.22045e-16
1.11022e-16
-4.44089e-16
-2.22045e-16
3.33067e-16
4.44089e-16
2.22045e-16
2.22045e-16
0
2.22045e-16
2.22045e-16
5.55112e-16
-1.11022e-16
3.33067e-16
1.11022e-16
3.33067e-16
-2.22045e-16
3.33067e-16
1.11022e-16
2.22045e-16
2.22045e-16
3.33067e-16
0
3.33067e-16
2.22045e-16
1.11022e-16
3.33067e-16
4.44089e-16
2.22045e-16
2.22045e-16
0
1.11022e-16
0
1.11022e-16
0
0
0
1.11022e-16
0
2.22045e-16
-2.22045e-16
2.22045e-16
-2.22045e-16
3.33067e-16
-2.22045e-16
3.33067e-16
-1.11022e-16
2.22045e-16
0
3.33067e-16
1.11022e-16
4.44089e-16
2.22045e-16
2.22045e-16
1.11022e-16
1.11022e-16
0
-2.22045e-16
-2.22045e-16
0
1.11022e-16
0
-3.33067e-16
-4.44089e-16
-4.44089e-16
0
0
4.44089e-16
2.10787e-12
6.66134e-16
6.80742e-09
1.33227e-15
2.33449e-06
8.28893e-13
0.000123079
6.70508e-11
0.0015687
1.30072e-09
0.00774105
9.36604e-09
0.0216432
3.60496e-08
0.0435147
9.42411e-08
0.0717188
1.91859e-07
0.104069
3.2946e-07
0.138515
5.01807e-07
0.173381
7.01352e-07
0.207353
9.21709e-07
0.239336
1.15982e-06
0.268236
1.41699e-06
0.292734
1.69496e-06
0.311315
2.01065e-06
0.322892
2.2837e-06
0.327904
2.7335e-06
0.328748
2.65681e-06
0.32783
3.23593e-06
0.326267
3.14296e-06
0.32613
2.96607e-06
0.326948
2.67494e-06
0.326959
2.43209e-06
0.325236
2.07823e-06
0.322803
1.33755e-06
0.322375
1.03471e-06
0.326739
2.97964e-07
0.33529
-3.79212e-07
0.359771
-2.05772e-06
0.415617
-2.90654e-06
0.512722
-3.63813e-06
0.631635
-4.19755e-06
0.724698
-4.37258e-06
0.77211
-4.46841e-06
0.778362
-4.39269e-06
0.773801
-4.1759e-06
0.753281
-3.85626e-06
0.693546
-3.42393e-06
0.548848
-2.69349e-06
0.277272
-1.56947e-06
0.0480647
-4.65881e-07
0.00149048
-4.44562e-08
5.35303e-06
-8.61946e-10
1.5827e-09
-2.10221e-12
1.06581e-13
-8.32667e-16
1.66533e-16
2.22045e-16
-2.22045e-16
1.66533e-16
-2.77556e-16
-5.55112e-17
-1.66533e-16
-5.55112e-17
0
0
3.88578e-16
-2.22045e-16
-3.88578e-16
-2.22045e-16
-2.22045e-16
-1.66533e-16
5.55112e-17
0
-2.22045e-16
1.66533e-16
-1.66533e-16
1.66533e-16
-1.11022e-16
-1.11022e-16
2.77556e-16
-2.77556e-16
-2.22045e-16
-4.996e-16
0
-1.11022e-16
5.55112e-17
0
1.11022e-16
-1.11022e-16
5.55112e-17
2.22045e-16
0
1.66533e-16
0
1.11022e-16
1.66533e-16
-2.22045e-16
1.66533e-16
-3.33067e-16
1.66533e-16
-2.77556e-16
-1.66533e-16
-4.44089e-16
-4.996e-16
-3.88578e-16
0
0
-5.55112e-17
2.22045e-16
-2.77556e-16
0
-5.55112e-17
0
2.77556e-16
-5.55112e-17
1.11022e-16
-1.66533e-16
-2.22045e-16
-5.55112e-17
-1.11022e-16
1.66533e-16
5.55112e-17
1.66533e-16
-3.33067e-16
1.66533e-16
-2.77556e-16
1.11022e-16
-5.55112e-17
0
1.66533e-16
-1.11022e-16
-5.55112e-16
1.11022e-16
-2.77556e-16
1.66533e-16
1.11022e-16
2.77556e-16
1.66533e-16
3.33067e-16
1.66533e-16
4.996e-16
5.55112e-17
6.10623e-16
5.55112e-17
4.44089e-16
2.22045e-16
1.11022e-16
0
0
0
3.33067e-16
-2.22045e-16
3.33067e-16
-1.11022e-16
3.33067e-16
0
0
0
-2.22045e-16
-1.11022e-16
-1.11022e-16
0
0
-1.11022e-16
0
-3.33067e-16
-2.22045e-16
-7.77156e-16
1.11022e-16
-2.22045e-16
-2.22045e-16
0
-5.55112e-16
-3.33067e-16
-2.22045e-16
3.33067e-16
-4.44089e-16
0
-3.33067e-16
0
-1.11022e-16
2.22045e-16
-1.11022e-16
0
6.66134e-16
1.11022e-16
2.22045e-16
-2.22045e-16
0
-2.22045e-16
4.44089e-16
0
1.11022e-16
0
0
3.33067e-16
0
3.33067e-16
0
3.33067e-16
-2.22045e-16
2.22045e-16
0
2.22045e-16
-1.11022e-16
1.11022e-16
-2.22045e-16
1.11022e-16
0
2.22045e-16
2.22045e-16
0
-1.11022e-16
0
3.33067e-16
0
1.11022e-16
1.11022e-16
1.11022e-16
0
0
-3.33067e-16
-2.22045e-16
-5.55112e-16
-4.44089e-16
-4.44089e-16
2.22045e-16
1.11022e-16
1.11022e-16
1.11022e-16
1.11022e-16
2.22045e-16
1.11022e-16
1.11022e-16
0
0
0
0
0
-1.11022e-16
-1.11022e-16
-1.11022e-16
0
-2.22045e-16
0
-5.55112e-16
0
-2.22045e-16
1.11022e-16
-1.11022e-16
1.11022e-16
-1.11022e-16
-1.11022e-16
-2.22045e-16
1.11022e-16
1.11022e-16
-1.11022e-16
0
3.33067e-16
1.11022e-16
1.11022e-16
-1.11022e-16
0
-1.11022e-16
-2.22045e-16
0
-1.11022e-16
1.11022e-16
-2.22045e-16
2.22045e-16
0
0
0
0
-2.22045e-16
0
1.11022e-16
1.11022e-16
-1.11022e-16
0
1.11022e-16
-2.22045e-16
-2.22045e-16
-3.33067e-16
-4.44089e-16
-1.11022e-16
-2.22045e-16
0
-4.44089e-16
0
0
0
2.10687e-12
0
6.80747e-09
6.66134e-16
2.3345e-06
3.3662e-13
0.00012308
3.04532e-11
0.0015687
6.5672e-10
0.00774107
5.21622e-09
0.0216433
2.17589e-08
0.0435148
6.06079e-08
0.071719
1.29815e-07
0.104069
2.32511e-07
0.138515
3.67068e-07
0.173381
5.29026e-07
0.207353
7.1373e-07
0.239336
9.18556e-07
0.268236
1.14439e-06
0.292734
1.3911e-06
0.311315
1.67586e-06
0.322892
1.91497e-06
0.327904
2.33417e-06
0.328748
2.27559e-06
0.32783
2.77255e-06
0.326267
2.75234e-06
0.32613
2.63944e-06
0.326948
2.34258e-06
0.326959
2.12595e-06
0.325236
1.84454e-06
0.322802
1.18541e-06
0.322374
8.71253e-07
0.326738
1.65798e-07
0.335289
-2.77552e-07
0.35977
-1.51954e-06
0.415617
-2.02702e-06
0.512722
-2.53706e-06
0.631635
-2.94891e-06
0.724698
-3.19778e-06
0.772111
-3.50334e-06
0.778362
-3.55691e-06
0.773802
-3.39682e-06
0.753282
-3.11079e-06
0.693548
-2.68508e-06
0.54885
-2.03035e-06
0.277274
-1.12137e-06
0.0480651
-3.13712e-07
0.0014905
-2.82412e-08
5.35313e-06
-5.21055e-10
1.58274e-09
-1.22652e-12
1.06082e-13
-2.22045e-16
-5.55112e-17
1.11022e-16
-3.88578e-16
-1.66533e-16
-4.996e-16
-3.88578e-16
-2.22045e-16
2.22045e-16
-5.55112e-17
3.88578e-16
1.66533e-16
2.22045e-16
-3.33067e-16
-1.66533e-16
-1.11022e-16
2.22045e-16
2.77556e-16
2.22045e-16
-1.66533e-16
-5.55112e-17
-3.88578e-16
-5.55112e-17
-3.88578e-16
5.55112e-17
5.55112e-17
1.11022e-16
2.77556e-16
-1.11022e-16
0
-1.11022e-16
5.55112e-17
-1.11022e-16
1.66533e-16
1.11022e-16
1.11022e-16
5.55112e-17
-1.66533e-16
-2.22045e-16
-4.996e-16
-3.88578e-16
1.11022e-16
1.66533e-16
2.22045e-16
-1.66533e-16
0
-3.33067e-16
0
-3.33067e-16
5.55112e-17
5.55112e-17
2.77556e-16
1.66533e-16
-2.22045e-16
0
-3.33067e-16
-5.55112e-17
0
3.88578e-16
2.77556e-16
-5.55112e-17
5.55112e-17
-3.88578e-16
-5.55112e-17
5.55112e-17
-1.66533e-16
-5.55112e-17
0
0
-3.33067e-16
-5.55112e-17
-3.88578e-16
1.11022e-16
0
2.22045e-16
2.22045e-16
0
-2.77556e-16
-5.55112e-17
-1.11022e-16
2.77556e-16
5.55112e-17
5.55112e-17
4.44089e-16
2.22045e-16
2.22045e-16
3.33067e-16
-5.55112e-17
3.33067e-16
-3.88578e-16
2.22045e-16
4.44089e-16
2.22045e-16
0
2.22045e-16
0
4.44089e-16
0
2.22045e-16
-2.22045e-16
2.22045e-16
-3.33067e-16
1.11022e-16
-3.33067e-16
0
-2.22045e-16
1.11022e-16
-2.22045e-16
-2.22045e-16
-5.55112e-16
-3.33067e-16
-5.55112e-16
2.22045e-16
-3.33067e-16
0
-3.33067e-16
-5.55112e-16
-2.22045e-16
3.33067e-16
2.22045e-16
-4.44089e-16
1.11022e-16
-4.44089e-16
3.33067e-16
0
3.33067e-16
0
0
0
4.44089e-16
4.44089e-16
2.22045e-16
2.22045e-16
-1.11022e-16
2.22045e-16
0
3.33067e-16
1.11022e-16
4.44089e-16
1.11022e-16
1.11022e-16
-1.11022e-16
0
2.22045e-16
-2.22045e-16
-2.22045e-16
-3.33067e-16
2.22045e-16
-2.22045e-16
4.44089e-16
0
2.22045e-16
0
0
0
1.11022e-16
1.11022e-16
2.22045e-16
-1.11022e-16
1.11022e-16
6.66134e-16
4.44089e-16
2.22045e-16
0
-2.22045e-16
0
-1.11022e-16
0
0
-1.11022e-16
2.22045e-16
-2.22045e-16
1.11022e-16
0
1.11022e-16
0
0
-2.22045e-16
0
0
-1.11022e-16
-4.44089e-16
-3.33067e-16
0
1.11022e-16
1.11022e-16
-1.11022e-16
-4.44089e-16
-1.11022e-16
-2.22045e-16
2.22045e-16
-3.33067e-16
0
-2.22045e-16
0
-3.33067e-16
0
-3.33067e-16
0
-5.55112e-16
1.11022e-16
-5.55112e-16
1.11022e-16
-3.33067e-16
1.11022e-16
-5.55112e-16
3.33067e-16
-2.22045e-16
0
-5.55112e-16
-2.22045e-16
-6.66134e-16
-2.22045e-16
-5.55112e-16
-2.22045e-16
-3.33067e-16
-1.11022e-16
1.11022e-16
0
0
0
-1.11022e-16
0
-2.22045e-16
0
-1.11022e-16
0
0
0
0
-2.22045e-16
2.22045e-16
-2.22045e-16
2.22045e-16
-3.33067e-16
0
0
1.11022e-16
2.10765e-12
2.22045e-16
6.80749e-09
4.44089e-16
2.33451e-06
6.31717e-14
0.00012308
9.30478e-12
0.00156871
2.66432e-10
0.00774109
2.51639e-09
0.0216433
1.18353e-08
0.0435149
3.58928e-08
0.0717191
8.19554e-08
0.104069
1.5447e-07
0.138515
2.54435e-07
0.173382
3.80154e-07
0.207354
5.28879e-07
0.239336
6.98749e-07
0.268236
8.9059e-07
0.292735
1.10462e-06
0.311315
1.35511e-06
0.322892
1.5719e-06
0.327904
1.94391e-06
0.328748
1.93304e-06
0.32783
2.37769e-06
0.326267
2.38621e-06
0.32613
2.31879e-06
0.326948
2.05469e-06
0.326958
1.88012e-06
0.325235
1.65913e-06
0.322802
1.10148e-06
0.322373
7.92131e-07
0.326737
1.66055e-07
0.335288
-1.19892e-07
0.35977
-1.00454e-06
0.415616
-1.35719e-06
0.512722
-1.73199e-06
0.631636
-2.07939e-06
0.724699
-2.36024e-06
0.772111
-2.69311e-06
0.778362
-2.75213e-06
0.773803
-2.61697e-06
0.753283
-2.34017e-06
0.693549
-1.9388e-06
0.548851
-1.38596e-06
0.277275
-7.11071e-07
0.0480654
-1.80966e-07
0.00149051
-1.45944e-08
5.35319e-06
-2.404e-10
1.58276e-09
-5.07983e-13
1.06193e-13
-3.33067e-16
-2.77556e-16
-4.44089e-16
-3.88578e-16
-2.22045e-16
1.66533e-16
-1.66533e-16
0
-4.44089e-16
-1.11022e-16
-4.44089e-16
-1.66533e-16
-1.11022e-16
1.11022e-16
-1.66533e-16
-5.55112e-17
-3.88578e-16
0
-3.33067e-16
-1.66533e-16
-1.66533e-16
-2.22045e-16
1.11022e-16
-2.77556e-16
-5.55112e-17
5.55112e-17
0
2.22045e-16
-1.66533e-16
5.55112e-17
-3.33067e-16
3.33067e-16
-5.55112e-17
1.11022e-16
-3.33067e-16
0
-2.77556e-16
-1.66533e-16
-2.22045e-16
-5.55112e-17
5.55112e-17
-1.66533e-16
-2.22045e-16
0
-1.11022e-16
2.22045e-16
-1.66533e-16
5.55112e-16
-1.66533e-16
5.55112e-17
-2.77556e-16
0
-1.66533e-16
-1.66533e-16
-1.66533e-16
1.11022e-16
2.22045e-16
-1.66533e-16
-1.11022e-16
-2.22045e-16
-3.33067e-16
4.44089e-16
-1.66533e-16
5.55112e-17
-1.66533e-16
-2.22045e-16
-3.88578e-16
1.66533e-16
-5.55112e-17
-5.55112e-17
-4.44089e-16
-2.22045e-16
-4.996e-16
-2.22045e-16
-2.77556e-16
2.22045e-16
-1.11022e-16
0
-2.22045e-16
-1.66533e-16
-1.11022e-16
3.33067e-16
1.11022e-16
4.44089e-16
1.11022e-16
1.11022e-16
0
0
-3.33067e-16
0
-2.22045e-16
-2.77556e-16
0
3.33067e-16
0
3.33067e-16
3.33067e-16
2.22045e-16
2.22045e-16
3.33067e-16
2.22045e-16
-3.33067e-16
0
-1.11022e-16
-3.33067e-16
0
-4.44089e-16
-3.33067e-16
0
-2.22045e-16
0
0
0
3.33067e-16
2.22045e-16
4.44089e-16
-3.33067e-16
-3.33067e-16
1.11022e-16
-2.22045e-16
-4.44089e-16
-4.44089e-16
-1.11022e-16
-2.22045e-16
-2.22045e-16
-4.44089e-16
2.22045e-16
0
0
-2.22045e-16
-2.22045e-16
-1.11022e-16
3.33067e-16
0
1.11022e-16
2.22045e-16
2.22045e-16
1.11022e-16
2.22045e-16
4.44089e-16
1.11022e-16
0
-1.11022e-16
0
2.22045e-16
2.22045e-16
-2.22045e-16
0
-1.11022e-16
3.33067e-16
-1.11022e-16
1.11022e-16
0
1.11022e-16
-1.11022e-16
-1.11022e-16
-2.22045e-16
1.11022e-16
0
3.33067e-16
-1.11022e-16
1.11022e-16
0
0
-1.11022e-16
-1.11022e-16
-3.33067e-16
1.11022e-16
0
3.33067e-16
0
0
-1.11022e-16
0
2.22045e-16
-2.22045e-16
0
-1.11022e-16
0
-2.22045e-16
0
-3.33067e-16
0
-5.55112e-16
-3.33067e-16
-1.11022e-16
-2.22045e-16
0
-1.11022e-16
-2.22045e-16
2.22045e-16
-2.22045e-16
-1.11022e-16
-3.33067e-16
1.11022e-16
0
0
-2.22045e-16
0
-1.11022e-16
3.33067e-16
-3.33067e-16
0
-5.55112e-16
4.44089e-16
-4.44089e-16
0
-2.22045e-16
-1.11022e-16
-4.44089e-16
0
-2.22045e-16
-1.11022e-16
-4.44089e-16
0
-2.22045e-16
-1.11022e-16
-3.33067e-16
-3.33067e-16
-1.11022e-16
-2.22045e-16
1.11022e-16
0
0
0
0
0
0
-1.11022e-16
0
0
-2.22045e-16
-4.44089e-16
-5.55112e-16
-4.44089e-16
-1.11022e-16
2.22045e-16
-3.33067e-16
2.10743e-12
-4.44089e-16
6.8075e-09
4.44089e-16
2.33451e-06
-1.62093e-14
0.00012308
-2.64233e-14
0.00156871
6.5162e-11
0.0077411
9.66265e-10
0.0216434
5.5984e-09
0.0435149
1.91625e-08
0.0717192
4.75086e-08
0.104069
9.53007e-08
0.138515
1.65085e-07
0.173382
2.57299e-07
0.207354
3.71063e-07
0.239337
5.05535e-07
0.268237
6.61681e-07
0.292735
8.4085e-07
0.311315
1.05433e-06
0.322893
1.25533e-06
0.327904
1.56929e-06
0.328748
1.62334e-06
0.32783
2.01661e-06
0.326266
2.04978e-06
0.32613
2.01278e-06
0.326947
1.8091e-06
0.326958
1.66876e-06
0.325235
1.49258e-06
0.322801
1.04976e-06
0.322373
7.69995e-07
0.326737
2.4054e-07
0.335288
3.91732e-08
0.359769
-5.6846e-07
0.415616
-8.49938e-07
0.512722
-1.14939e-06
0.631636
-1.44905e-06
0.724698
-1.70659e-06
0.772111
-1.97167e-06
0.778363
-1.99244e-06
0.773803
-1.86445e-06
0.753283
-1.6107e-06
0.693549
-1.26531e-06
0.548852
-8.35646e-07
0.277276
-3.8262e-07
0.0480656
-8.26364e-08
0.00149052
-5.27076e-09
5.35321e-06
-6.58723e-11
1.58276e-09
-4.61853e-14
1.0647e-13
-1.11022e-16
-2.22045e-16
-2.77556e-16
-2.77556e-16
-4.44089e-16
-3.33067e-16
-5.55112e-17
-5.55112e-17
1.11022e-16
1.11022e-16
1.66533e-16
-4.44089e-16
-1.11022e-16
-1.66533e-16
3.88578e-16
0
3.33067e-16
1.11022e-16
5.55112e-17
-5.55112e-17
-2.77556e-16
-4.996e-16
-1.66533e-16
-3.33067e-16
5.55112e-17
1.66533e-16
1.66533e-16
5.55112e-17
0
1.66533e-16
-2.22045e-16
5.55112e-17
-2.22045e-16
5.55112e-17
-5.55112e-16
0
-3.88578e-16
-5.55112e-17
-4.996e-16
-2.22045e-16
-5.55112e-17
-5.55112e-17
2.77556e-16
1.11022e-16
3.33067e-16
1.66533e-16
-1.11022e-16
3.88578e-16
-2.22045e-16
1.11022e-16
-4.44089e-16
-2.22045e-16
-4.44089e-16
0
-4.44089e-16
-2.77556e-16
-2.77556e-16
-3.33067e-16
-2.22045e-16
1.66533e-16
0
3.88578e-16
-1.66533e-16
-2.22045e-16
-1.11022e-16
1.11022e-16
5.55112e-17
-2.22045e-16
-3.33067e-16
-1.66533e-16
-4.996e-16
-1.11022e-16
-3.33067e-16
-5.55112e-17
-2.22045e-16
2.77556e-16
-1.11022e-16
5.55112e-17
-2.77556e-16
1.11022e-16
-1.11022e-16
3.33067e-16
3.88578e-16
2.22045e-16
-1.66533e-16
-5.55112e-17
-1.66533e-16
1.66533e-16
-3.88578e-16
-2.22045e-16
-4.44089e-16
5.55112e-17
-3.33067e-16
3.33067e-16
2.22045e-16
3.33067e-16
5.55112e-16
3.33067e-16
1.11022e-16
0
2.22045e-16
2.22045e-16
0
-1.11022e-16
-5.55112e-16
-4.44089e-16
-2.22045e-16
0
-2.22045e-16
5.55112e-16
-1.11022e-16
2.22045e-16
0
0
-3.33067e-16
-1.11022e-16
-2.22045e-16
0
-1.11022e-16
0
-2.22045e-16
0
-3.33067e-16
-1.11022e-16
0
-2.22045e-16
0
0
3.33067e-16
0
-1.11022e-16
1.11022e-16
2.22045e-16
3.33067e-16
2.22045e-16
3.33067e-16
6.66134e-16
2.22045e-16
2.22045e-16
0
1.11022e-16
-2.22045e-16
0
-2.22045e-16
-1.11022e-16
-1.11022e-16
-1.11022e-16
1.11022e-16
0
0
-1.11022e-16
-2.22045e-16
-2.22045e-16
-2.22045e-16
0
3.33067e-16
2.22045e-16
0
-2.22045e-16
-2.22045e-16
0
-4.44089e-16
-1.11022e-16
-4.44089e-16
0
-1.11022e-16
-2.22045e-16
-4.44089e-16
0
-2.22045e-16
-2.22045e-16
-3.33067e-16
-2.22045e-16
-1.11022e-16
2.22045e-16
-2.22045e-16
0
-1.11022e-16
1.11022e-16
-1.11022e-16
-1.11022e-16
-2.22045e-16
0
-2.22045e-16
0
-1.11022e-16
0
-2.22045e-16
-2.22045e-16
-2.22045e-16
0
-1.11022e-16
1.11022e-16
2.22045e-16
-1.11022e-16
-2.22045e-16
0
-2.22045e-16
-4.44089e-16
-4.44089e-16
-2.22045e-16
-3.33067e-16
1.11022e-16
2.22045e-16
3.33067e-16