/*--------------------------------*- C++ -*----------------------------------*\
  =========                 |
  \\      /  F ield         | OpenFOAM: The Open Source CFD Toolbox
   \\    /   O peration     | Website:  https://openfoam.org
    \\  /    A nd           | Version:  13
     \\/     M anipulation  |
\*---------------------------------------------------------------------------*/
FoamFile
{
    format      ascii;
    class       volVectorField;
    location    "0.0009";
    object      U;
}
// * * * * * * * * * * * * * * * * * * * * * * * * * * * * * * * * * * * * * //

dimensions      [0 1 -1 0 0 0 0];

internalField   nonuniform List<vector> 
33333
(
(8.46332e-14 3.02711e-14 0)
(1.07407e-14 -3.90152e-14 0)
(1.9003e-15 -8.57829e-14 0)
(7.4686e-14 -1.44518e-13 0)
(1.65487e-13 -1.48367e-13 0)
(1.56212e-13 -1.49342e-13 0)
(8.42775e-14 -1.20885e-13 0)
(-2.25945e-14 -1.06358e-13 0)
(-1.021e-13 -1.62668e-14 0)
(-1.08106e-13 2.22936e-14 0)
(-9.60445e-14 1.83329e-14 0)
(-5.23403e-15 -2.03163e-14 0)
(1.15031e-13 -4.97547e-14 0)
(3.93798e-14 -2.29907e-14 0)
(-1.40143e-13 5.36868e-14 0)
(-2.14371e-13 4.36065e-14 0)
(-1.69436e-13 7.55386e-14 0)
(-1.45852e-13 1.16754e-13 0)
(-1.45824e-13 4.36023e-14 0)
(-8.64301e-14 2.63891e-14 0)
(4.09665e-14 1.26975e-14 0)
(2.06207e-13 -1.04665e-14 0)
(1.82827e-13 -1.00375e-13 0)
(5.97279e-14 -1.03578e-13 0)
(-2.2369e-14 -8.92351e-14 0)
(-3.09128e-14 -2.06674e-14 0)
(2.94089e-14 -1.90267e-15 0)
(-4.38923e-15 4.05812e-15 0)
(-5.31856e-14 3.37737e-14 0)
(1.34151e-14 5.30317e-14 0)
(8.29044e-14 2.14998e-14 0)
(7.43503e-14 -8.04519e-14 0)
(-1.04704e-14 -1.06243e-13 0)
(-9.69277e-15 -8.68314e-14 0)
(3.73353e-14 -8.51907e-14 0)
(2.16167e-15 -4.63725e-14 0)
(-6.80514e-14 7.6757e-15 0)
(3.23777e-14 -1.89961e-14 0)
(6.92118e-14 -1.18464e-13 0)
(-8.18134e-14 -9.14247e-14 0)
(-1.2703e-13 -8.90406e-14 0)
(6.66227e-15 -4.8314e-14 0)
(-1.98412e-14 -4.59397e-14 0)
(-8.52677e-14 -5.49951e-14 0)
(2.81976e-15 -5.65588e-15 0)
(1.37061e-13 3.00523e-14 0)
(1.41405e-13 9.27345e-14 0)
(1.22234e-13 8.5195e-14 0)
(9.05691e-14 -9.9401e-14 0)
(7.33549e-14 -1.48219e-13 0)
(3.38417e-14 -8.96491e-14 0)
(2.77849e-14 -4.99363e-14 0)
(-6.01899e-14 -5.47279e-14 0)
(-1.33587e-13 -1.13439e-14 0)
(7.49431e-14 5.67808e-14 0)
(1.15412e-13 -6.86162e-15 0)
(-5.58153e-14 -4.43693e-14 0)
(-1.34102e-13 -2.82348e-14 0)
(-1.04574e-13 -8.44831e-14 0)
(-1.52119e-13 -1.06857e-13 0)
(-1.24546e-13 1.70031e-14 0)
(-2.74781e-14 3.13219e-14 0)
(1.2031e-13 4.48982e-14 0)
(1.89628e-13 -6.57543e-15 0)
(4.62286e-14 -2.14382e-14 0)
(-1.75827e-14 1.40161e-14 0)
(1.92951e-14 -5.19475e-14 0)
(-1.4634e-13 -5.92098e-14 0)
(-2.13473e-13 -8.43322e-14 0)
(-1.72545e-13 -3.41722e-14 0)
(2.81129e-14 2.87478e-14 0)
(2.20295e-13 7.62794e-14 0)
(2.84169e-13 5.87558e-14 0)
(1.10574e-13 -9.62251e-14 0)
(-1.86653e-14 -1.23082e-13 0)
(3.75718e-14 -9.95808e-14 0)
(7.95031e-14 -9.99346e-14 0)
(-6.6755e-15 -4.81952e-14 0)
(-9.44802e-14 5.10862e-14 0)
(7.40602e-14 1.43953e-13 0)
(1.19369e-13 4.67558e-14 0)
(-4.1418e-14 -2.67159e-15 0)
(-1.00038e-13 4.95953e-14 0)
(-5.30183e-14 8.25679e-14 0)
(2.34287e-14 7.65368e-14 0)
(-4.24816e-14 -7.4893e-15 0)
(-2.23652e-13 -2.3577e-14 0)
(-1.74292e-13 1.22678e-14 0)
(2.24654e-14 5.74318e-14 0)
(1.42174e-13 4.51364e-14 0)
(1.01224e-13 -8.00154e-14 0)
(1.12293e-13 -9.43026e-14 0)
(3.07544e-14 -1.42809e-13 0)
(-1.09742e-13 -1.08701e-13 0)
(-4.94334e-14 -1.00456e-13 0)
(-3.71159e-14 -1.67716e-13 0)
(9.26432e-14 -1.3829e-13 0)
(1.19942e-13 -6.0133e-14 0)
(-6.46025e-14 -6.49135e-14 0)
(-1.69456e-13 -1.06717e-13 0)
(-1.05486e-13 -1.04876e-13 0)
(1.76891e-14 -3.39002e-14 0)
(1.10027e-13 -8.7443e-14 0)
(3.3889e-15 -1.01302e-13 0)
(-7.01191e-14 -6.71715e-14 0)
(-7.45123e-14 -6.89078e-14 0)
(-6.17313e-14 -5.09721e-14 0)
(-5.1397e-14 1.04806e-14 0)
(-4.5019e-14 1.49409e-14 0)
(-2.71789e-14 3.3759e-14 0)
(4.17781e-14 -2.74267e-14 0)
(1.30026e-14 -1.04438e-13 0)
(7.59933e-14 -6.58692e-14 0)
(7.21754e-14 -5.24539e-14 0)
(3.97227e-14 4.6299e-14 0)
(9.02839e-14 6.49857e-14 0)
(1.06584e-13 -1.79834e-14 0)
(4.522e-14 -5.81123e-14 0)
(2.83628e-14 -1.82674e-14 0)
(6.18992e-14 -1.46113e-14 0)
(2.11756e-13 5.02941e-15 0)
(3.26988e-13 1.91869e-14 0)
(2.34888e-13 -5.35631e-14 0)
(-1.64349e-14 -1.21084e-13 0)
(-2.69552e-14 -1.58487e-13 0)
(-3.62494e-15 -1.72357e-13 0)
(-2.52884e-15 -1.46168e-13 0)
(-9.87628e-14 -1.29259e-13 0)
(-1.05369e-13 -6.51099e-14 0)
(-9.00281e-14 -4.66543e-14 0)
(-1.14714e-13 2.00853e-14 0)
(-1.3849e-13 2.29676e-14 0)
(-9.60268e-14 4.97837e-14 0)
(-2.47555e-14 9.0605e-16 0)
(6.74083e-14 4.05762e-15 0)
(8.08747e-14 -5.07992e-14 0)
(-8.9546e-14 -7.63289e-14 0)
(-3.77987e-14 -9.93242e-14 0)
(6.20657e-14 -1.72491e-13 0)
(4.46588e-14 -1.26015e-13 0)
(-2.64551e-14 -8.6296e-14 0)
(-6.70483e-14 -1.402e-13 0)
(-1.61802e-13 -1.61897e-13 0)
(-2.54608e-13 -2.28917e-13 0)
(-1.67375e-13 -1.32386e-13 0)
(-1.29897e-14 -1.14375e-13 0)
(1.68868e-13 -7.85642e-15 0)
(2.54303e-13 8.1583e-15 0)
(5.79767e-14 -7.16305e-14 0)
(-7.80575e-14 -1.02903e-13 0)
(-6.96586e-14 -1.56666e-13 0)
(-1.70423e-14 -1.38419e-13 0)
(2.74293e-14 -2.47301e-13 0)
(-3.20157e-14 -1.97082e-13 0)
(-8.00337e-14 -1.13997e-13 0)
(-4.27501e-15 -1.03558e-13 0)
(-1.19528e-13 -8.4397e-14 0)
(-8.74106e-14 2.14946e-14 0)
(6.97551e-15 2.13035e-15 0)
(-3.31734e-14 4.51936e-14 0)
(-1.21516e-13 8.94535e-14 0)
(-1.01482e-13 1.04049e-13 0)
(1.01485e-13 6.4273e-14 0)
(1.03662e-13 -5.42021e-14 0)
(1.69212e-13 -2.99368e-14 0)
(1.66596e-13 3.47048e-16 0)
(4.73333e-15 -1.80011e-13 0)
(-4.69204e-14 -2.62232e-13 0)
(-4.22174e-14 -3.158e-13 0)
(7.04901e-14 -3.45935e-13 0)
(1.60219e-13 -3.32743e-13 0)
(1.56882e-13 -3.68137e-13 0)
(1.67725e-13 -3.34295e-13 0)
(7.22654e-14 -2.76011e-13 0)
(-7.70959e-14 -2.56241e-13 0)
(-1.24506e-13 -1.75692e-13 0)
(-1.23642e-13 -1.46112e-13 0)
(-2.40523e-14 -1.84843e-13 0)
(1.24301e-13 -1.20565e-13 0)
(6.03378e-14 -1.61432e-13 0)
(-1.10868e-13 -1.26695e-13 0)
(-2.00104e-13 -1.65686e-13 0)
(-1.44409e-13 -1.53174e-13 0)
(-1.2818e-13 -1.07323e-13 0)
(-1.90652e-13 -8.42534e-14 0)
(-7.25852e-14 -9.52529e-14 0)
(9.38093e-15 -1.89805e-13 0)
(8.8689e-14 -1.39415e-13 0)
(9.7198e-14 -2.10961e-13 0)
(9.24115e-14 -3.10579e-13 0)
(5.27157e-14 -3.42024e-13 0)
(5.19669e-14 -2.71561e-13 0)
(7.08014e-14 -2.01695e-13 0)
(1.84011e-14 -1.38119e-13 0)
(-2.29202e-15 -4.19354e-14 0)
(-2.37321e-14 -8.44903e-14 0)
(-3.75955e-14 -7.98919e-14 0)
(-1.15712e-14 -1.98598e-13 0)
(9.96707e-15 -2.99156e-13 0)
(1.82532e-14 -2.65603e-13 0)
(8.0119e-14 -1.87106e-13 0)
(7.87893e-14 -1.2772e-13 0)
(-2.11678e-14 -1.53468e-13 0)
(-2.97163e-14 -2.17769e-13 0)
(-9.46772e-15 -2.91095e-13 0)
(-2.78647e-14 -2.78853e-13 0)
(-5.2736e-14 -2.08547e-13 0)
(8.36279e-16 -1.91778e-13 0)
(-1.59835e-14 -1.89585e-13 0)
(-7.95531e-14 -2.30116e-13 0)
(6.25444e-14 -1.03824e-13 0)
(1.51162e-13 -9.89304e-14 0)
(1.46985e-13 -6.95929e-14 0)
(9.60748e-14 -8.96807e-14 0)
(6.41694e-14 -1.52715e-13 0)
(1.71002e-13 -2.04034e-13 0)
(1.00892e-13 -1.83168e-13 0)
(-1.31903e-14 -2.33672e-13 0)
(-6.24784e-14 -1.7755e-13 0)
(-2.57863e-14 -8.82601e-14 0)
(8.38508e-14 -7.77264e-14 0)
(7.23643e-15 -1.60191e-13 0)
(-8.99716e-14 -1.96229e-13 0)
(-1.33435e-13 -2.18312e-13 0)
(-1.54983e-13 -2.36103e-13 0)
(-7.31906e-14 -2.04678e-13 0)
(-3.33848e-14 -1.06833e-13 0)
(-1.1975e-14 -7.47669e-14 0)
(5.88094e-14 -5.18446e-14 0)
(1.12794e-13 -1.13515e-13 0)
(5.53959e-14 -1.71461e-13 0)
(2.54804e-15 -1.44232e-13 0)
(-5.56272e-14 -2.50925e-13 0)
(-1.53025e-13 -2.5892e-13 0)
(-1.59803e-13 -2.10266e-13 0)
(-5.28785e-14 -1.74176e-13 0)
(5.7324e-14 -5.12812e-14 0)
(1.67686e-13 6.27793e-14 0)
(1.85672e-13 -6.58739e-14 0)
(7.04035e-14 -1.59437e-13 0)
(-2.30572e-15 -2.35893e-13 0)
(5.56795e-14 -1.66733e-13 0)
(9.31386e-14 -2.14109e-13 0)
(1.16252e-13 -1.7561e-13 0)
(6.00558e-14 -3.52508e-14 0)
(7.4676e-14 4.14097e-14 0)
(-7.43243e-15 -2.5178e-15 0)
(-1.78888e-14 -4.4376e-14 0)
(5.90659e-15 2.69299e-14 0)
(-1.64878e-14 -4.97407e-14 0)
(-5.08618e-14 -2.18626e-14 0)
(-1.15506e-13 -1.37602e-13 0)
(-1.82148e-13 -2.07894e-13 0)
(-1.49068e-13 -8.04649e-14 0)
(2.63974e-14 -3.07811e-14 0)
(5.39079e-14 -1.27986e-13 0)
(6.29172e-14 -2.47883e-13 0)
(9.53925e-14 -2.66952e-13 0)
(-1.27455e-14 -2.68874e-13 0)
(-8.04077e-14 -2.34551e-13 0)
(-1.02769e-13 -2.45533e-13 0)
(-4.29607e-14 -2.91626e-13 0)
(1.13319e-13 -1.98289e-13 0)
(1.35466e-13 -2.51712e-13 0)
(-2.17162e-14 -2.11946e-13 0)
(-9.93861e-14 -1.94173e-13 0)
(-7.50132e-14 -8.73943e-14 0)
(-4.44074e-14 -1.13827e-13 0)
(-5.77148e-15 -1.43002e-13 0)
(-1.82458e-14 -2.12984e-13 0)
(-1.07798e-14 -1.79012e-13 0)
(-5.74492e-14 -9.7334e-14 0)
(-1.20542e-14 -9.17857e-14 0)
(-6.95204e-14 -3.67465e-14 0)
(-8.86724e-14 -1.43414e-13 0)
(-5.71273e-14 -9.50512e-14 0)
(-6.98836e-14 -2.04396e-13 0)
(-6.48722e-18 -2.75508e-13 0)
(7.49477e-14 -1.92025e-13 0)
(6.61919e-14 -1.97565e-13 0)
(1.06913e-13 -1.56396e-13 0)
(1.43957e-13 -9.92669e-14 0)
(6.63434e-14 -2.40345e-13 0)
(9.86223e-14 -2.20902e-13 0)
(1.10317e-13 -1.75022e-13 0)
(9.68796e-14 -1.48669e-13 0)
(2.32796e-13 -1.28714e-13 0)
(2.45157e-13 -7.71338e-14 0)
(1.79814e-13 -1.7433e-13 0)
(1.93174e-14 -2.15493e-13 0)
(-1.02925e-14 -2.79568e-13 0)
(1.2368e-14 -2.93092e-13 0)
(2.86815e-14 -3.60411e-13 0)
(-3.20617e-14 -3.10784e-13 0)
(-1.95204e-14 -1.62589e-13 0)
(-9.27192e-14 -1.5022e-13 0)
(-1.54137e-13 -1.37259e-13 0)
(-8.58947e-14 -9.32615e-14 0)
(-3.99725e-14 -1.86202e-14 0)
(-6.71201e-14 -5.64346e-14 0)
(-4.6962e-15 -6.67301e-14 0)
(2.45566e-14 -1.98069e-13 0)
(-1.07259e-13 -2.52258e-13 0)
(-1.01642e-13 -1.92517e-13 0)
(-2.87203e-14 -2.26033e-13 0)
(9.42245e-14 -2.5643e-13 0)
(2.3135e-14 -2.99566e-13 0)
(-1.07071e-13 -3.78653e-13 0)
(-2.16344e-13 -3.53928e-13 0)
(-1.84163e-13 -2.71993e-13 0)
(-1.07487e-13 -1.67365e-13 0)
(-3.00829e-14 -1.3701e-13 0)
(1.40726e-13 -7.46881e-14 0)
(2.36277e-13 -1.77654e-13 0)
(7.79477e-14 -2.45979e-13 0)
(-3.38286e-14 -2.17062e-13 0)
(-4.75395e-14 -2.4971e-13 0)
(-6.45641e-14 -2.22632e-13 0)
(-1.22719e-14 -2.48674e-13 0)
(4.67453e-14 -2.61699e-13 0)
(-7.55187e-14 -2.18962e-13 0)
(-1.03167e-13 -9.42245e-14 0)
(-5.7099e-14 -1.69019e-13 0)
(-4.91933e-14 -1.32068e-13 0)
(-3.42425e-14 -1.55413e-13 0)
(1.10084e-14 -1.14744e-13 0)
(-5.76313e-14 -9.62693e-14 0)
(-9.16763e-14 -6.30499e-14 0)
(-3.8722e-14 -9.36736e-14 0)
(6.04305e-14 -1.76914e-13 0)
(2.0385e-13 -1.13505e-13 0)
(1.42027e-13 -1.75259e-13 0)
(-4.70668e-14 -3.02744e-13 0)
(-1.17241e-13 -3.3802e-13 0)
(-4.37366e-14 -2.9088e-13 0)
(1.15456e-13 -2.28545e-13 0)
(1.26335e-13 -1.79267e-13 0)
(1.7217e-13 -2.40497e-13 0)
(1.83262e-13 -2.88941e-13 0)
(5.62344e-14 -2.85367e-13 0)
(-2.10323e-14 -2.4432e-13 0)
(-3.93743e-14 -2.27324e-13 0)
(-8.78242e-14 -1.31225e-13 0)
(5.32231e-15 -8.59629e-14 0)
(1.34373e-13 -5.08314e-14 0)
(1.80104e-14 -1.68014e-13 0)
(-1.7422e-13 -1.73617e-13 0)
(-2.58902e-13 -2.50229e-13 0)
(-8.30498e-14 -2.1912e-13 0)
(-6.27435e-14 -2.7161e-13 0)
(-9.39433e-14 -2.74836e-13 0)
(-1.4896e-13 -2.26232e-13 0)
(2.62196e-15 -2.38372e-13 0)
(1.73379e-13 -2.03252e-13 0)
(3.3612e-14 -1.28675e-13 0)
(2.80849e-14 -9.99179e-14 0)
(4.31939e-14 -7.75912e-14 0)
(4.09371e-14 -1.33225e-13 0)
(9.30922e-14 -1.89939e-13 0)
(1.21191e-13 -2.73931e-13 0)
(2.18537e-14 -1.78172e-13 0)
(-6.87739e-14 -1.60128e-13 0)
(-5.54052e-14 -1.20331e-13 0)
(-7.70603e-14 -1.27337e-13 0)
(-5.75033e-14 -1.78499e-13 0)
(8.79637e-14 -2.30528e-13 0)
(1.21801e-13 -1.70209e-13 0)
(-3.53534e-14 -2.14893e-13 0)
(-1.17719e-13 -3.33186e-13 0)
(-6.5604e-14 -2.7499e-13 0)
(-4.0939e-15 -2.59395e-13 0)
(5.58867e-15 -2.46937e-13 0)
(1.54016e-15 -1.86862e-13 0)
(1.14816e-14 -1.68664e-13 0)
(-3.22967e-14 -2.20946e-13 0)
(-2.42468e-14 -2.5165e-13 0)
(8.71045e-14 -1.7892e-13 0)
(1.19979e-13 -2.37098e-13 0)
(1.66007e-13 -2.00976e-13 0)
(1.13024e-13 -9.41163e-14 0)
(4.54113e-14 -4.41716e-14 0)
(1.21689e-13 -8.70582e-14 0)
(3.25508e-14 -2.51136e-13 0)
(-2.99754e-14 -3.43048e-13 0)
(6.13916e-14 -3.23609e-13 0)
(-1.56535e-14 -2.75657e-13 0)
(3.70341e-14 -3.17671e-13 0)
(6.18797e-14 -2.97866e-13 0)
(-6.72568e-14 -1.7862e-13 0)
(-1.63169e-13 -2.04028e-13 0)
(-1.19755e-13 -1.28848e-13 0)
(-5.52066e-14 -9.74079e-14 0)
(-3.34357e-15 -1.62747e-13 0)
(-9.36063e-15 -2.48768e-13 0)
(7.35959e-14 -2.08381e-13 0)
(8.09556e-14 -1.84627e-13 0)
(-2.51878e-14 -2.32168e-13 0)
(-6.86021e-14 -3.88399e-13 0)
(-1.00209e-13 -2.99903e-13 0)
(-1.31553e-13 -3.26834e-13 0)
(-1.26615e-13 -2.96751e-13 0)
(3.36231e-14 -2.07868e-13 0)
(1.41386e-13 -9.92644e-14 0)
(1.77168e-13 -1.02792e-13 0)
(1.06449e-13 -1.41808e-13 0)
(-6.61175e-15 -1.60541e-13 0)
(-3.56607e-14 -2.28205e-13 0)
(4.37318e-14 -2.34929e-13 0)
(1.18557e-13 -2.87743e-13 0)
(1.98218e-13 -2.77322e-13 0)
(1.33062e-13 -1.80566e-13 0)
(5.28474e-14 -1.19902e-13 0)
(1.09878e-14 -9.04156e-14 0)
(-6.74314e-15 -6.99174e-14 0)
(-9.68074e-14 -1.95322e-13 0)
(-7.37836e-14 -2.75824e-13 0)
(-7.94919e-14 -2.32951e-13 0)
(-1.81655e-13 -2.94368e-13 0)
(-1.53922e-13 -3.09045e-13 0)
(-5.05843e-14 -1.53763e-13 0)
(4.21615e-14 -8.15014e-14 0)
(-4.52547e-14 -1.13903e-13 0)
(-4.16085e-14 -2.13659e-13 0)
(7.47502e-14 -2.65885e-13 0)
(2.01675e-14 -2.4049e-13 0)
(-8.89626e-14 -3.50182e-13 0)
(-1.61898e-13 -3.28388e-13 0)
(2.20764e-14 -2.384e-13 0)
(1.59454e-13 -1.42967e-13 0)
(8.87038e-14 -1.51089e-13 0)
(-1.84164e-14 -1.38034e-13 0)
(-1.96867e-14 -1.84425e-13 0)
(-3.60443e-14 -1.23172e-13 0)
(-8.34108e-14 -1.29969e-13 0)
(-2.26556e-14 -1.72091e-13 0)
(-5.44944e-14 -1.31175e-13 0)
(4.35201e-14 -1.73e-13 0)
(6.12692e-14 -8.10141e-14 0)
(-2.01248e-14 -8.56825e-14 0)
(-1.65964e-13 -1.62778e-13 0)
(-1.54923e-13 -2.24281e-13 0)
(-1.50839e-13 -1.28201e-13 0)
(-1.97326e-13 -1.65027e-13 0)
(-9.05463e-15 -1.13965e-13 0)
(1.20068e-13 -1.82698e-13 0)
(8.96337e-14 -1.21473e-13 0)
(1.14992e-13 -1.75866e-13 0)
(5.45519e-14 -2.53642e-13 0)
(9.05026e-14 -2.31716e-13 0)
(1.35071e-13 -2.57989e-13 0)
(9.59602e-14 -3.30716e-13 0)
(1.35379e-13 -2.2925e-13 0)
(2.38905e-13 -1.80979e-13 0)
(2.60151e-13 -1.69706e-13 0)
(1.44794e-13 -2.16223e-13 0)
(-4.05904e-14 -1.63733e-13 0)
(-6.74168e-14 -2.76438e-13 0)
(-3.05062e-14 -3.19527e-13 0)
(-4.19177e-14 -3.85421e-13 0)
(1.03071e-13 -3.59649e-13 0)
(7.14369e-14 -2.77264e-13 0)
(-6.29642e-14 -2.51391e-13 0)
(-7.7057e-14 -1.72084e-13 0)
(-6.34149e-14 -1.18219e-13 0)
(-9.36196e-14 -2.38673e-13 0)
(-5.12984e-14 -2.797e-13 0)
(-6.85956e-14 -2.11939e-13 0)
(-1.19933e-13 -2.71106e-13 0)
(-6.5941e-14 -4.02874e-13 0)
(-2.23053e-15 -3.04303e-13 0)
(-3.56448e-15 -2.55366e-13 0)
(-3.76976e-14 -3.1086e-13 0)
(-9.91676e-14 -4.74187e-13 0)
(-1.23603e-13 -5.25833e-13 0)
(-1.12175e-13 -5.45732e-13 0)
(-6.07243e-14 -3.64053e-13 0)
(-1.1593e-13 -3.07209e-13 0)
(3.48328e-14 -2.07175e-13 0)
(1.18685e-13 -1.13634e-13 0)
(1.29521e-13 -1.17379e-13 0)
(6.32605e-14 -1.83256e-13 0)
(-5.60697e-14 -2.41133e-13 0)
(-6.61534e-14 -2.90953e-13 0)
(-2.86789e-14 -2.34318e-13 0)
(3.42003e-14 -1.97188e-13 0)
(6.2794e-15 -2.11569e-13 0)
(-1.47933e-14 -1.84102e-13 0)
(8.59453e-15 -8.21083e-14 0)
(-1.28516e-13 -3.87463e-14 0)
(-1.48627e-13 -1.494e-13 0)
(-2.07339e-15 -1.89546e-13 0)
(4.88897e-14 -1.27282e-13 0)
(-1.11504e-13 -1.46257e-13 0)
(-1.03227e-13 -1.41051e-13 0)
(-1.79781e-14 -2.069e-13 0)
(1.24459e-13 -1.23137e-13 0)
(1.89077e-13 -1.40555e-13 0)
(1.17652e-13 -2.66595e-13 0)
(-1.49015e-15 -4.51535e-13 0)
(-5.86606e-14 -4.00786e-13 0)
(5.87251e-14 -2.28697e-13 0)
(1.50347e-13 -2.3625e-13 0)
(1.42059e-13 -2.46303e-13 0)
(6.14769e-14 -2.66074e-13 0)
(1.11451e-13 -3.13423e-13 0)
(1.11556e-13 -3.13643e-13 0)
(3.22611e-14 -3.02105e-13 0)
(-7.28108e-15 -3.44599e-13 0)
(-2.71693e-15 -3.05001e-13 0)
(3.74013e-14 -2.12103e-13 0)
(3.24409e-14 -2.6335e-13 0)
(-3.62363e-14 -3.24078e-13 0)
(-1.4378e-13 -2.84462e-13 0)
(-1.96615e-13 -2.14989e-13 0)
(-1.45141e-13 -2.69995e-13 0)
(-1.62796e-13 -3.15469e-13 0)
(-1.09994e-13 -3.38854e-13 0)
(-4.41651e-14 -3.00756e-13 0)
(1.47074e-14 -1.83402e-13 0)
(1.41265e-13 -2.78305e-13 0)
(1.50704e-13 -2.67482e-13 0)
(9.74561e-14 -1.905e-13 0)
(4.88301e-14 -1.28044e-13 0)
(2.36995e-14 -9.02444e-14 0)
(-2.85372e-14 -1.45742e-13 0)
(3.99286e-14 -2.73691e-13 0)
(8.01742e-14 -2.96553e-13 0)
(-9.63194e-16 -2.53262e-13 0)
(-2.96619e-14 -3.13004e-13 0)
(-7.8494e-14 -2.96569e-13 0)
(-6.8468e-14 -2.97718e-13 0)
(3.16959e-14 -2.94435e-13 0)
(4.68249e-14 -3.24273e-13 0)
(-1.12388e-13 -3.44886e-13 0)
(-5.31851e-14 -3.68984e-13 0)
(2.40898e-14 -3.03416e-13 0)
(-5.77192e-14 -2.83245e-13 0)
(-1.23744e-14 -2.73603e-13 0)
(6.57409e-14 -2.42581e-13 0)
(-1.6124e-14 -2.84589e-13 0)
(-7.14772e-14 -3.33335e-13 0)
(-3.22443e-14 -2.49951e-13 0)
(8.11822e-14 -2.44314e-13 0)
(1.52698e-13 -1.90834e-13 0)
(2.64705e-13 -2.14737e-13 0)
(1.92881e-13 -1.47391e-13 0)
(7.00995e-14 -1.48329e-13 0)
(-1.15331e-14 -1.57672e-13 0)
(-8.39182e-14 -3.27484e-13 0)
(-6.62359e-14 -2.98728e-13 0)
(1.43093e-14 -3.51214e-13 0)
(-2.23557e-14 -3.67509e-13 0)
(7.08412e-14 -3.6366e-13 0)
(1.64129e-13 -3.12e-13 0)
(3.90496e-14 -3.41227e-13 0)
(-8.78893e-14 -2.06974e-13 0)
(-8.80095e-14 -2.14609e-13 0)
(-9.23299e-14 -1.47129e-13 0)
(-1.25184e-13 -2.01075e-13 0)
(-5.21878e-14 -3.17556e-13 0)
(1.0602e-13 -3.36833e-13 0)
(5.72555e-14 -4.05139e-13 0)
(-1.22614e-13 -4.27272e-13 0)
(-7.89467e-14 -4.69099e-13 0)
(-1.51522e-14 -3.96821e-13 0)
(-1.36871e-13 -4.03709e-13 0)
(-3.71339e-14 -2.9647e-13 0)
(1.48153e-13 -2.59461e-13 0)
(1.10736e-13 -1.54864e-13 0)
(1.01152e-13 -2.02558e-13 0)
(9.42499e-14 -1.76789e-13 0)
(1.28876e-15 -1.69111e-13 0)
(-4.85243e-14 -1.51912e-13 0)
(2.61092e-14 -2.41165e-13 0)
(9.52452e-14 -1.84707e-13 0)
(1.92644e-13 -1.83173e-13 0)
(2.13854e-13 -2.47442e-13 0)
(1.01649e-13 -2.19417e-13 0)
(3.06646e-14 -2.92417e-13 0)
(-1.26299e-13 -2.39742e-13 0)
(-2.01714e-13 -2.91192e-13 0)
(-8.06639e-14 -3.54963e-13 0)
(-4.52787e-14 -3.84847e-13 0)
(-1.60468e-13 -3.33568e-13 0)
(-3.63904e-14 -3.00317e-13 0)
(1.1232e-13 -2.29174e-13 0)
(1.71795e-14 -2.27315e-13 0)
(-8.58437e-14 -2.69716e-13 0)
(-5.30545e-14 -1.8249e-13 0)
(7.11233e-14 -2.19782e-13 0)
(-8.73828e-14 -2.40465e-13 0)
(-1.74242e-13 -2.96164e-13 0)
(-5.18009e-14 -2.91152e-13 0)
(6.29886e-14 -1.62041e-13 0)
(2.17867e-13 -1.79906e-13 0)
(1.22387e-13 -1.24137e-13 0)
(-3.92738e-14 -1.61491e-13 0)
(-6.65732e-15 -1.55458e-13 0)
(3.33104e-14 -2.19722e-13 0)
(-9.66146e-14 -1.12634e-13 0)
(-5.67091e-14 -1.47716e-13 0)
(-7.89797e-15 -1.84203e-13 0)
(2.55731e-14 -1.39057e-13 0)
(7.48545e-14 -2.25711e-13 0)
(-5.44568e-14 -1.92088e-13 0)
(-2.19082e-13 -2.42972e-13 0)
(-1.55181e-13 -2.36361e-13 0)
(-8.94378e-14 -2.30674e-13 0)
(-1.42808e-13 -1.62454e-13 0)
(-5.95305e-14 -1.98077e-13 0)
(2.75265e-14 -2.77535e-13 0)
(6.51302e-14 -3.23119e-13 0)
(5.4039e-14 -3.56787e-13 0)
(7.23662e-14 -3.79395e-13 0)
(1.30827e-13 -3.27902e-13 0)
(9.74594e-14 -2.80103e-13 0)
(1.24365e-13 -2.41333e-13 0)
(2.48291e-13 -1.99758e-13 0)
(2.57714e-13 -1.3788e-13 0)
(1.61286e-13 -1.90013e-13 0)
(1.24382e-13 -1.70931e-13 0)
(-9.32325e-15 -2.14807e-13 0)
(-9.09699e-14 -1.5572e-13 0)
(-5.70505e-14 -2.19672e-13 0)
(-6.25416e-14 -1.85525e-13 0)
(5.10438e-14 -2.2374e-13 0)
(9.87232e-14 -3.26552e-13 0)
(2.39382e-14 -2.4506e-13 0)
(-1.68149e-14 -2.10032e-13 0)
(-1.57826e-13 -2.3937e-13 0)
(-2.32215e-13 -3.24225e-13 0)
(-2.83556e-14 -3.97698e-13 0)
(-4.02982e-14 -3.46036e-13 0)
(-1.73754e-13 -3.77756e-13 0)
(-5.62241e-14 -4.26216e-13 0)
(3.68378e-14 -3.83827e-13 0)
(-6.34074e-16 -4.70937e-13 0)
(-9.6645e-14 -4.9444e-13 0)
(-1.74457e-13 -5.21123e-13 0)
(-1.12211e-13 -4.78936e-13 0)
(-4.84369e-14 -4.47454e-13 0)
(2.13128e-14 -4.3338e-13 0)
(-2.80082e-14 -3.3396e-13 0)
(1.32738e-13 -1.75568e-13 0)
(2.12983e-13 -1.01619e-13 0)
(1.04586e-13 -8.27824e-14 0)
(-5.98721e-15 -1.41645e-13 0)
(-9.5058e-14 -1.40334e-13 0)
(-2.96899e-14 -2.25165e-13 0)
(2.36455e-14 -1.65723e-13 0)
(2.43672e-14 -1.6402e-13 0)
(3.57221e-14 -1.83282e-13 0)
(3.4839e-14 -1.42511e-13 0)
(-9.05799e-15 -2.19998e-13 0)
(-1.28998e-13 -1.60511e-13 0)
(-1.9825e-13 -7.56627e-14 0)
(-3.02979e-14 -1.42207e-13 0)
(9.97508e-14 -2.077e-13 0)
(-6.95693e-14 -2.18951e-13 0)
(-1.73475e-13 -1.99329e-13 0)
(-2.44679e-14 -1.74371e-13 0)
(1.09361e-13 -9.40509e-14 0)
(7.85182e-14 -1.68902e-13 0)
(1.1417e-13 -2.44407e-13 0)
(1.44863e-14 -4.85094e-13 0)
(1.14292e-13 -4.23081e-13 0)
(1.40806e-13 -3.26953e-13 0)
(6.47401e-14 -2.92552e-13 0)
(1.2034e-13 -3.15564e-13 0)
(1.26797e-13 -3.5741e-13 0)
(1.45332e-13 -3.08029e-13 0)
(8.80648e-14 -4.26019e-13 0)
(-1.19026e-14 -4.14379e-13 0)
(-5.2003e-14 -4.02348e-13 0)
(4.26049e-14 -3.93588e-13 0)
(4.13665e-14 -4.04199e-13 0)
(-1.14529e-14 -4.32668e-13 0)
(-1.65046e-14 -4.09464e-13 0)
(-9.47516e-14 -3.67165e-13 0)
(-1.8384e-13 -2.82593e-13 0)
(-1.54464e-13 -3.1829e-13 0)
(-1.00627e-13 -3.21503e-13 0)
(-7.28939e-14 -2.27412e-13 0)
(-5.06779e-15 -2.47422e-13 0)
(-2.10985e-14 -1.98769e-13 0)
(3.74676e-14 -2.69807e-13 0)
(1.07677e-13 -3.26898e-13 0)
(1.73416e-13 -2.95966e-13 0)
(1.72142e-13 -2.58065e-13 0)
(6.24947e-14 -2.5801e-13 0)
(-5.60191e-14 -2.17996e-13 0)
(-8.25874e-14 -2.66909e-13 0)
(4.57244e-14 -3.30208e-13 0)
(1.03531e-15 -3.67813e-13 0)
(-1.14112e-13 -4.4826e-13 0)
(-1.3586e-13 -4.1378e-13 0)
(-4.53756e-14 -3.81744e-13 0)
(9.5391e-14 -3.49316e-13 0)
(6.53574e-14 -4.17782e-13 0)
(-6.66935e-14 -4.15141e-13 0)
(-7.04083e-14 -3.17116e-13 0)
(-2.47163e-14 -4.0176e-13 0)
(1.54206e-14 -3.94658e-13 0)
(3.4163e-14 -2.90715e-13 0)
(-2.41361e-14 -3.72854e-13 0)
(-7.97484e-14 -4.5628e-13 0)
(7.54546e-15 -3.9642e-13 0)
(3.56229e-14 -2.8847e-13 0)
(1.17696e-13 -2.64483e-13 0)
(1.82114e-13 -1.58249e-13 0)
(2.15153e-13 -1.85569e-13 0)
(1.77513e-13 -2.3322e-13 0)
(5.15323e-14 -2.57484e-13 0)
(-5.78526e-14 -3.47555e-13 0)
(-7.66836e-14 -3.21685e-13 0)
(3.98985e-15 -2.75807e-13 0)
(-2.4119e-14 -2.64205e-13 0)
(-2.68698e-14 -3.22694e-13 0)
(4.86552e-14 -3.15051e-13 0)
(9.30229e-14 -3.661e-13 0)
(4.06203e-14 -4.27947e-13 0)
(-8.33417e-14 -3.8981e-13 0)
(-5.30155e-14 -3.59787e-13 0)
(-2.45298e-14 -3.08084e-13 0)
(-1.55857e-13 -3.32649e-13 0)
(-1.14682e-13 -2.41455e-13 0)
(1.12596e-14 -3.69262e-13 0)
(1.7982e-14 -4.37373e-13 0)
(-7.13008e-14 -4.40888e-13 0)
(-4.17018e-14 -3.74687e-13 0)
(3.69196e-15 -4.99715e-13 0)
(-4.36308e-14 -4.32393e-13 0)
(6.93311e-15 -3.08497e-13 0)
(1.34395e-13 -2.62542e-13 0)
(1.44402e-13 -2.32209e-13 0)
(1.31246e-13 -2.1507e-13 0)
(1.28482e-13 -1.83877e-13 0)
(2.65316e-14 -2.15397e-13 0)
(-3.69192e-14 -1.69527e-13 0)
(5.89697e-14 -1.43158e-13 0)
(1.43752e-13 -9.84837e-14 0)
(8.86782e-14 -6.03693e-14 0)
(1.27263e-13 -1.90769e-13 0)
(5.42843e-14 -2.61377e-13 0)
(8.17009e-15 -3.89538e-13 0)
(-6.29305e-14 -3.66298e-13 0)
(-2.41388e-13 -3.75303e-13 0)
(-1.35859e-13 -3.63055e-13 0)
(1.52532e-14 -3.96067e-13 0)
(-6.17215e-14 -3.5015e-13 0)
(-3.47375e-14 -2.49257e-13 0)
(7.98093e-14 -2.95769e-13 0)
(1.76975e-14 -2.62192e-13 0)
(-4.6921e-14 -2.3508e-13 0)
(-9.25693e-15 -2.7193e-13 0)
(3.18746e-14 -3.1521e-13 0)
(-5.03902e-14 -3.06204e-13 0)
(-1.38833e-13 -2.46609e-13 0)
(-4.94495e-14 -2.89897e-13 0)
(8.30518e-14 -2.46786e-13 0)
(1.37518e-13 -2.61945e-13 0)
(9.35875e-14 -3.2014e-13 0)
(7.49423e-15 -3.4448e-13 0)
(-3.88398e-14 -3.09543e-13 0)
(-4.16104e-15 -3.72405e-13 0)
(5.81761e-15 -2.87337e-13 0)
(-6.8446e-14 -1.87946e-13 0)
(-9.14084e-15 -2.42608e-13 0)
(3.90181e-15 -1.83995e-13 0)
(1.33925e-14 -2.63513e-13 0)
(-3.40559e-14 -3.10656e-13 0)
(-1.71822e-13 -3.08563e-13 0)
(-1.62502e-13 -2.57082e-13 0)
(-1.18988e-13 -3.3066e-13 0)
(-1.38712e-13 -2.99188e-13 0)
(-1.74697e-13 -3.23118e-13 0)
(-3.20722e-14 -3.97458e-13 0)
(5.9234e-14 -3.94089e-13 0)
(5.71693e-14 -4.12976e-13 0)
(1.14627e-13 -4.13522e-13 0)
(1.8135e-13 -4.53593e-13 0)
(2.19993e-13 -3.5679e-13 0)
(1.62433e-13 -2.48608e-13 0)
(2.13946e-13 -2.46262e-13 0)
(2.06332e-13 -2.48421e-13 0)
(2.05332e-13 -2.9127e-13 0)
(1.25446e-13 -2.04753e-13 0)
(4.98862e-16 -2.33892e-13 0)
(-3.78511e-14 -1.92127e-13 0)
(-3.34875e-14 -1.71627e-13 0)
(-2.78178e-14 -1.06232e-13 0)
(-6.23137e-14 -1.73117e-13 0)
(2.19481e-14 -2.79422e-13 0)
(-5.33132e-15 -3.05345e-13 0)
(-1.76571e-14 -3.67429e-13 0)
(-1.2486e-13 -3.18954e-13 0)
(-2.52211e-13 -2.80983e-13 0)
(-7.82329e-14 -2.96804e-13 0)
(-4.88879e-14 -4.76146e-13 0)
(-1.58188e-13 -5.07193e-13 0)
(-8.0769e-14 -4.51428e-13 0)
(-4.70619e-14 -4.87659e-13 0)
(-6.74331e-14 -4.54876e-13 0)
(-6.73668e-14 -4.90275e-13 0)
(-8.75808e-14 -4.9178e-13 0)
(-5.29211e-14 -4.71108e-13 0)
(-7.93987e-14 -3.86656e-13 0)
(8.29031e-15 -3.61159e-13 0)
(1.66657e-13 -3.08396e-13 0)
(2.57341e-13 -1.6431e-13 0)
(1.68667e-13 -1.25532e-13 0)
(5.43593e-14 -1.67364e-13 0)
(2.52455e-14 -1.98158e-13 0)
(-8.81283e-14 -2.02283e-13 0)
(-6.40547e-14 -1.82074e-13 0)
(4.97015e-14 -2.30313e-13 0)
(-1.89843e-16 -2.1053e-13 0)
(1.85597e-14 -2.58042e-13 0)
(-5.04596e-15 -2.54115e-13 0)
(-1.26107e-14 -3.01478e-13 0)
(-5.36636e-14 -2.80139e-13 0)
(-1.2624e-13 -2.66567e-13 0)
(-3.45193e-14 -2.32324e-13 0)
(1.10396e-14 -2.97739e-13 0)
(-1.06145e-13 -3.34368e-13 0)
(-1.17519e-13 -2.6632e-13 0)
(8.48065e-14 -1.66274e-13 0)
(1.5833e-13 -1.465e-13 0)
(5.27327e-14 -1.23298e-13 0)
(7.88732e-14 -1.41081e-13 0)
(7.42692e-14 -3.51721e-13 0)
(8.37793e-14 -3.24044e-13 0)
(1.29081e-13 -3.33677e-13 0)
(1.4678e-13 -3.29571e-13 0)
(1.12316e-13 -3.05163e-13 0)
(1.25679e-13 -3.04859e-13 0)
(1.13743e-13 -3.63391e-13 0)
(5.41189e-14 -4.2289e-13 0)
(3.50667e-14 -4.04125e-13 0)
(4.88678e-16 -3.22883e-13 0)
(-1.103e-16 -3.00808e-13 0)
(2.62833e-14 -3.22337e-13 0)
(-1.27549e-14 -3.31582e-13 0)
(-3.66528e-14 -3.50929e-13 0)
(-3.15795e-14 -3.55672e-13 0)
(-1.06171e-13 -3.01795e-13 0)
(-1.73612e-13 -2.38683e-13 0)
(-6.36947e-14 -2.42636e-13 0)
(-6.5469e-14 -2.04786e-13 0)
(-4.76737e-14 -2.01411e-13 0)
(-1.89587e-14 -2.10497e-13 0)
(-2.53204e-14 -2.28071e-13 0)
(1.25373e-13 -2.87914e-13 0)
(2.04977e-13 -2.81598e-13 0)
(1.19984e-13 -3.12796e-13 0)
(5.5669e-14 -3.83636e-13 0)
(-5.93346e-14 -3.40514e-13 0)
(-1.04609e-13 -3.16092e-13 0)
(2.22433e-14 -3.80141e-13 0)
(-6.91018e-14 -4.63794e-13 0)
(-1.29346e-13 -4.04516e-13 0)
(-2.27478e-14 -3.39301e-13 0)
(1.02298e-14 -2.96526e-13 0)
(-1.07649e-14 -3.013e-13 0)
(-2.20672e-14 -3.88127e-13 0)
(-1.50272e-15 -3.96756e-13 0)
(-3.59109e-14 -3.36157e-13 0)
(-5.40552e-14 -3.31923e-13 0)
(6.39751e-14 -3.66176e-13 0)
(5.77583e-15 -4.47559e-13 0)
(-1.13057e-13 -4.19712e-13 0)
(-3.7001e-14 -3.75485e-13 0)
(6.98566e-14 -3.22229e-13 0)
(6.87338e-14 -2.71223e-13 0)
(1.64445e-13 -2.60482e-13 0)
(2.09165e-13 -2.66506e-13 0)
(2.21736e-13 -2.4284e-13 0)
(1.48881e-13 -2.58991e-13 0)
(-1.99918e-14 -3.24562e-13 0)
(-8.1821e-14 -3.07194e-13 0)
(-1.54298e-14 -2.32736e-13 0)
(2.08371e-14 -1.8454e-13 0)
(-5.44464e-14 -1.59842e-13 0)
(-7.08193e-14 -1.81713e-13 0)
(-2.35703e-14 -2.01201e-13 0)
(-7.60081e-16 -2.91715e-13 0)
(-4.26191e-14 -3.29036e-13 0)
(3.20655e-15 -3.441e-13 0)
(-1.74217e-14 -2.52068e-13 0)
(-6.25457e-14 -2.86508e-13 0)
(-7.02932e-14 -2.88749e-13 0)
(-1.05704e-13 -1.88438e-13 0)
(-9.35839e-14 -2.86137e-13 0)
(1.7558e-14 -3.25094e-13 0)
(-7.43598e-14 -3.8342e-13 0)
(-1.08642e-13 -3.34944e-13 0)
(-6.71226e-14 -3.97344e-13 0)
(4.11225e-14 -3.3129e-13 0)
(9.7954e-14 -2.56015e-13 0)
(1.55613e-13 -2.24488e-13 0)
(1.72374e-13 -2.6345e-13 0)
(1.42948e-13 -2.34963e-13 0)
(1.03195e-13 -2.44005e-13 0)
(9.45872e-15 -2.77735e-13 0)
(2.26515e-14 -2.28394e-13 0)
(8.63334e-14 -2.12849e-13 0)
(1.22599e-13 -2.02821e-13 0)
(6.33813e-14 -1.82365e-13 0)
(7.35543e-14 -2.03211e-13 0)
(-1.78765e-14 -3.3846e-13 0)
(-6.93876e-14 -3.50626e-13 0)
(-1.04194e-13 -4.10099e-13 0)
(-2.03262e-13 -3.63846e-13 0)
(-1.18904e-13 -2.68829e-13 0)
(-4.07758e-14 -3.27457e-13 0)
(1.49161e-15 -3.03934e-13 0)
(-9.57598e-16 -2.36395e-13 0)
(3.16123e-14 -2.72041e-13 0)
(8.61193e-14 -2.90059e-13 0)
(-3.39876e-14 -2.89725e-13 0)
(-7.33057e-14 -3.0165e-13 0)
(1.18741e-14 -3.22704e-13 0)
(-4.31229e-14 -3.54924e-13 0)
(-1.59295e-13 -3.54206e-13 0)
(-7.81231e-14 -3.57374e-13 0)
(8.9853e-14 -3.58117e-13 0)
(1.24025e-13 -3.85077e-13 0)
(7.08761e-14 -4.84889e-13 0)
(1.64162e-15 -4.6635e-13 0)
(-5.36706e-14 -4.03456e-13 0)
(5.31605e-14 -4.03928e-13 0)
(8.83421e-14 -3.57812e-13 0)
(-2.43291e-14 -2.89472e-13 0)
(2.53903e-14 -2.17777e-13 0)
(1.58453e-14 -2.34116e-13 0)
(-5.21213e-14 -2.57275e-13 0)
(-1.02457e-13 -3.57703e-13 0)
(-1.36333e-13 -3.34338e-13 0)
(-1.10492e-13 -2.22809e-13 0)
(-9.71784e-14 -2.56252e-13 0)
(-1.15625e-13 -2.70776e-13 0)
(-1.71737e-13 -2.10941e-13 0)
(-5.92207e-14 -1.74959e-13 0)
(3.81179e-14 -2.38607e-13 0)
(3.01355e-14 -2.39952e-13 0)
(1.22767e-13 -2.65662e-13 0)
(1.47886e-13 -3.13868e-13 0)
(2.0229e-13 -3.3778e-13 0)
(1.74615e-13 -2.73701e-13 0)
(1.98439e-13 -2.76494e-13 0)
(2.33418e-13 -3.66446e-13 0)
(2.21255e-13 -3.44496e-13 0)
(1.77512e-13 -2.89321e-13 0)
(-2.08482e-14 -3.1155e-13 0)
(-6.01222e-14 -2.97226e-13 0)
(2.60973e-15 -2.17202e-13 0)
(-2.98074e-14 -2.03085e-13 0)
(-1.0985e-13 -2.34753e-13 0)
(-4.71916e-14 -2.67085e-13 0)
(-3.59742e-14 -3.32711e-13 0)
(-6.32353e-14 -3.45251e-13 0)
(-1.15092e-13 -3.63408e-13 0)
(-1.82247e-13 -2.86874e-13 0)
(-2.01883e-13 -3.01954e-13 0)
(-1.6713e-13 -4.30013e-13 0)
(-9.06765e-14 -4.68811e-13 0)
(-7.36939e-14 -3.97847e-13 0)
(-2.30779e-14 -4.03532e-13 0)
(-1.29271e-14 -3.66251e-13 0)
(-1.29421e-13 -4.44888e-13 0)
(-1.51937e-13 -3.97074e-13 0)
(-3.91344e-14 -4.10259e-13 0)
(1.15928e-14 -3.52333e-13 0)
(4.30346e-14 -2.97749e-13 0)
(1.52159e-13 -2.2465e-13 0)
(3.03823e-13 -2.99843e-13 0)
(2.00264e-13 -2.99058e-13 0)
(1.39347e-14 -2.53686e-13 0)
(-9.50008e-15 -2.42863e-13 0)
(-7.01218e-14 -2.79764e-13 0)
(-5.48312e-14 -2.22438e-13 0)
(7.00262e-14 -2.74571e-13 0)
(1.56328e-14 -2.564e-13 0)
(-3.89798e-15 -2.21152e-13 0)
(-9.07629e-15 -2.26266e-13 0)
(-8.8735e-14 -2.60763e-13 0)
(-8.44311e-14 -3.69182e-13 0)
(-4.16396e-14 -3.53428e-13 0)
(-2.5016e-14 -3.0322e-13 0)
(-6.86704e-14 -2.93784e-13 0)
(-6.56317e-14 -3.39956e-13 0)
(-2.40596e-14 -2.67724e-13 0)
(8.45093e-14 -2.62265e-13 0)
(1.48694e-13 -2.80953e-13 0)
(9.59529e-14 -2.27901e-13 0)
(1.11051e-14 -2.58834e-13 0)
(1.89405e-13 -2.94543e-13 0)
(1.53562e-13 -2.415e-13 0)
(7.12403e-14 -2.84774e-13 0)
(8.89421e-14 -3.48453e-13 0)
(1.58721e-13 -3.41857e-13 0)
(1.24553e-13 -2.89994e-13 0)