/*--------------------------------*- C++ -*----------------------------------*\
  =========                 |
  \\      /  F ield         | OpenFOAM: The Open Source CFD Toolbox
   \\    /   O peration     | Website:  https://openfoam.org
    \\  /    A nd           | Version:  13
     \\/     M anipulation  |
\*---------------------------------------------------------------------------*/
FoamFile
{
    format      ascii;
    class       volVectorField;
    location    "0.0021";
    object      U;
}
// * * * * * * * * * * * * * * * * * * * * * * * * * * * * * * * * * * * * * //

dimensions      [0 1 -1 0 0 0 0];

internalField   nonuniform List<vector> 
33333
(
(1.16364e-13 5.73339e-13 0)
(3.27834e-13 4.11733e-13 0)
(4.86691e-13 3.67201e-13 0)
(3.10535e-13 2.99706e-13 0)
(5.86452e-13 1.48398e-13 0)
(7.89809e-13 -1.18911e-14 0)
(3.17704e-13 1.33753e-13 0)
(2.71826e-13 4.11519e-13 0)
(4.94138e-13 4.48499e-13 0)
(2.97534e-13 3.64958e-13 0)
(-1.28129e-14 5.16892e-13 0)
(-4.10104e-14 2.55015e-13 0)
(-3.64487e-13 2.87874e-13 0)
(-2.97394e-13 3.89894e-13 0)
(-1.73319e-13 2.63466e-13 0)
(-4.65348e-13 2.117e-13 0)
(-5.83936e-13 4.36955e-13 0)
(-3.24156e-13 4.64697e-13 0)
(-4.53942e-14 5.11438e-13 0)
(1.04282e-13 2.44281e-13 0)
(7.48043e-14 6.78211e-14 0)
(1.11529e-13 1.39236e-13 0)
(2.7253e-13 9.69924e-14 0)
(1.1347e-14 1.64291e-13 0)
(-1.67592e-13 3.04128e-13 0)
(-2.27081e-14 4.56301e-13 0)
(3.54872e-14 4.71363e-13 0)
(-1.38595e-13 4.28786e-13 0)
(-2.47211e-13 3.40145e-13 0)
(-1.47436e-13 1.90862e-13 0)
(1.22868e-13 1.94631e-13 0)
(1.24199e-13 2.66401e-13 0)
(-9.11936e-14 4.54918e-13 0)
(1.23809e-13 4.65918e-13 0)
(1.94458e-13 5.67792e-13 0)
(-2.41469e-14 4.90606e-13 0)
(-3.85959e-13 4.25568e-13 0)
(-5.32546e-13 3.29993e-13 0)
(-1.22656e-13 1.82427e-13 0)
(-8.76915e-14 -5.41442e-15 0)
(-3.88101e-13 8.1862e-14 0)
(-1.57801e-13 2.1417e-13 0)
(-7.2095e-14 2.35755e-13 0)
(9.11708e-14 2.1127e-13 0)
(1.89269e-13 1.77105e-13 0)
(1.41846e-14 1.68832e-13 0)
(-4.11903e-14 3.42536e-13 0)
(3.27582e-14 4.29144e-13 0)
(-1.78539e-14 2.93158e-13 0)
(-1.09185e-13 2.90861e-13 0)
(2.49222e-13 3.77562e-13 0)
(3.65091e-13 2.19907e-13 0)
(4.50035e-13 1.75703e-13 0)
(2.32534e-13 2.30231e-13 0)
(3.8473e-14 3.30705e-13 0)
(3.01226e-13 3.74418e-13 0)
(2.23911e-13 2.66678e-13 0)
(-8.75586e-15 3.84734e-13 0)
(2.33931e-13 4.08358e-13 0)
(3.23719e-13 5.12188e-13 0)
(1.73811e-13 4.56439e-13 0)
(-9.21575e-14 3.6024e-13 0)
(-1.71891e-13 3.1853e-13 0)
(-1.84172e-13 2.51678e-13 0)
(-4.79481e-14 2.17824e-13 0)
(-7.55137e-14 2.18709e-13 0)
(-3.19593e-13 3.22417e-13 0)
(-3.89343e-13 3.65086e-13 0)
(-2.50042e-13 5.25444e-13 0)
(-1.83199e-14 4.6962e-13 0)
(1.35026e-13 5.05037e-13 0)
(2.31834e-13 3.22322e-13 0)
(1.92741e-13 2.3261e-13 0)
(-1.82603e-13 2.78539e-13 0)
(-2.87544e-13 4.97075e-13 0)
(-1.75408e-14 6.32028e-13 0)
(1.11533e-13 4.55582e-13 0)
(2.85588e-13 4.47263e-13 0)
(1.94933e-13 5.81713e-13 0)
(1.01751e-14 6.37802e-13 0)
(8.82454e-14 5.57397e-13 0)
(-9.40957e-14 3.86073e-13 0)
(-2.16448e-13 4.52885e-13 0)
(-3.98387e-14 5.77282e-13 0)
(3.80263e-14 6.74711e-13 0)
(2.09533e-13 5.50823e-13 0)
(2.66544e-13 4.69375e-13 0)
(-1.16705e-13 1.87401e-13 0)
(-6.21364e-13 5.52471e-14 0)
(-7.95936e-13 -1.21196e-13 0)
(-8.51578e-13 -1.71628e-13 0)
(-7.32909e-13 -9.68565e-14 0)
(-3.50911e-13 -1.24183e-13 0)
(6.90745e-14 1.33022e-13 0)
(4.84485e-13 1.96357e-13 0)
(6.34643e-13 3.9687e-13 0)
(4.52749e-13 2.79864e-13 0)
(2.14252e-13 3.17028e-13 0)
(-2.04085e-14 2.35397e-13 0)
(-1.46737e-13 4.35867e-13 0)
(2.16553e-13 4.04723e-13 0)
(3.20726e-13 2.90544e-13 0)
(-1.35969e-13 4.19129e-13 0)
(-2.8074e-13 4.0065e-13 0)
(-4.2011e-13 2.85158e-13 0)
(-3.63827e-13 2.54532e-13 0)
(-5.14181e-13 2.63137e-13 0)
(-6.70054e-13 3.71239e-13 0)
(-1.34857e-13 3.82727e-13 0)
(-5.56072e-14 3.73376e-13 0)
(-5.3315e-14 3.68657e-13 0)
(1.90061e-13 3.85217e-13 0)
(5.41976e-13 3.06644e-13 0)
(6.52988e-13 1.54279e-13 0)
(5.9608e-13 9.79908e-14 0)
(4.1141e-13 2.01533e-13 0)
(-6.40521e-14 2.92772e-13 0)
(-2.91741e-13 3.23185e-13 0)
(-2.1796e-13 2.65739e-13 0)
(-2.01667e-13 1.32101e-13 0)
(-1.25454e-13 2.43203e-13 0)
(1.71305e-13 3.71903e-13 0)
(3.11055e-13 2.39461e-13 0)
(1.75388e-13 1.22098e-13 0)
(-1.57558e-13 3.41947e-13 0)
(-1.22076e-13 7.27685e-13 0)
(-1.4148e-13 8.45745e-13 0)
(-2.03113e-13 7.74652e-13 0)
(-1.22138e-13 6.41053e-13 0)
(-1.42672e-13 6.54554e-13 0)
(-2.14225e-13 5.48868e-13 0)
(-9.81048e-14 2.78172e-13 0)
(8.73909e-14 1.73414e-13 0)
(7.13939e-14 1.83815e-13 0)
(1.13588e-13 3.24221e-13 0)
(2.86942e-13 3.75732e-13 0)
(3.55878e-13 3.60598e-13 0)
(2.55028e-13 3.82622e-13 0)
(7.54649e-14 2.88866e-13 0)
(9.27886e-14 3.34552e-13 0)
(1.31049e-13 3.69103e-13 0)
(6.53169e-14 6.71353e-13 0)
(1.40792e-14 9.08691e-13 0)
(-1.48031e-13 9.76078e-13 0)
(-2.75805e-13 8.74628e-13 0)
(-3.28827e-13 7.82917e-13 0)
(-3.84646e-13 5.94437e-13 0)
(-1.75345e-13 4.77775e-13 0)
(-1.90448e-13 3.84356e-13 0)
(-2.27788e-13 4.50622e-13 0)
(-8.32371e-14 5.6725e-13 0)
(1.1677e-15 6.42218e-13 0)
(3.60664e-14 6.96276e-13 0)
(1.3038e-13 5.92812e-13 0)
(2.83743e-13 4.53451e-13 0)
(1.99298e-13 3.29383e-13 0)
(1.73497e-13 3.48911e-13 0)
(1.21318e-13 3.84656e-13 0)
(3.42138e-14 5.90342e-13 0)
(-3.00674e-13 6.34669e-13 0)
(-5.78039e-13 7.21167e-13 0)
(-6.10387e-13 6.8917e-13 0)
(-4.63848e-13 5.52883e-13 0)
(-2.98186e-13 5.75654e-13 0)
(-2.28133e-13 4.54945e-13 0)
(-1.18774e-13 5.12716e-13 0)
(-4.37699e-14 6.15505e-13 0)
(2.17708e-13 5.62798e-13 0)
(2.90602e-13 3.29133e-13 0)
(5.07073e-13 2.00463e-13 0)
(2.64684e-13 4.6711e-14 0)
(4.83419e-13 1.02212e-13 0)
(7.39603e-13 -8.07284e-14 0)
(6.74159e-13 8.87441e-14 0)
(5.2273e-13 5.31468e-13 0)
(3.11798e-13 5.21032e-13 0)
(3.19285e-13 2.83372e-13 0)
(-3.69078e-14 4.71153e-13 0)
(-2.84291e-13 2.73833e-13 0)
(-2.52083e-13 3.38741e-15 0)
(-3.18803e-13 7.85428e-14 0)
(-3.67877e-13 -9.62298e-14 0)
(-3.81307e-13 -1.18265e-13 0)
(-4.00329e-13 2.09652e-13 0)
(-3.01325e-13 3.44576e-13 0)
(-9.27843e-14 3.03138e-13 0)
(-3.29145e-14 3.18892e-13 0)
(1.0544e-13 4.54678e-14 0)
(1.29553e-13 6.15729e-14 0)
(1.69511e-13 -2.32487e-15 0)
(4.99584e-14 3.21704e-14 0)
(-5.19193e-14 2.83247e-13 0)
(3.94665e-14 3.80745e-13 0)
(-2.57532e-14 3.35726e-13 0)
(-9.72959e-14 2.09257e-13 0)
(-3.03529e-13 2.17663e-13 0)
(-2.3101e-13 2.82368e-13 0)
(2.21283e-14 4.31245e-13 0)
(1.83253e-13 3.34916e-13 0)
(4.0179e-14 4.51724e-13 0)
(1.11555e-13 4.77026e-13 0)
(1.62802e-13 2.72568e-13 0)
(-1.19771e-13 9.34853e-14 0)
(-3.53604e-13 -4.94074e-14 0)
(-5.65103e-13 1.80115e-13 0)
(-2.74048e-13 7.40752e-14 0)
(-1.02323e-13 -1.15304e-13 0)
(-1.93228e-13 -1.45364e-14 0)
(-6.81019e-14 2.25324e-13 0)
(-1.4644e-13 1.18102e-13 0)
(1.0203e-14 8.80859e-14 0)
(1.10878e-13 -1.1636e-13 0)
(1.09709e-13 2.91154e-14 0)
(1.69317e-13 2.07192e-13 0)
(-5.46603e-14 3.91521e-13 0)
(-9.04914e-14 2.58946e-13 0)
(6.14265e-14 4.76764e-13 0)
(1.4981e-13 4.2959e-13 0)
(2.59862e-13 2.86441e-13 0)
(5.04531e-13 3.15164e-13 0)
(3.09308e-13 2.00027e-13 0)
(1.3452e-13 2.44045e-13 0)
(3.11454e-13 4.10717e-13 0)
(2.74993e-13 4.39993e-13 0)
(1.71815e-13 5.74011e-13 0)
(2.52668e-13 5.34141e-13 0)
(2.54839e-13 3.64079e-13 0)
(1.99982e-14 2.68301e-13 0)
(-1.34073e-13 7.37865e-14 0)
(-1.76004e-13 1.85078e-13 0)
(-2.07338e-13 4.53114e-14 0)
(-1.12291e-13 9.7509e-14 0)
(-6.40754e-15 -2.42839e-14 0)
(-1.79257e-13 1.91294e-13 0)
(-3.43412e-13 2.40225e-13 0)
(-1.79951e-13 3.71894e-13 0)
(-1.5725e-14 4.57732e-13 0)
(5.46709e-14 3.1401e-13 0)
(1.25235e-13 2.79526e-13 0)
(7.69967e-14 2.99156e-13 0)
(-1.37921e-13 2.66858e-13 0)
(-1.40304e-13 3.84254e-13 0)
(-9.8278e-14 3.67109e-13 0)
(2.12844e-14 3.22335e-13 0)
(3.55502e-13 3.13359e-13 0)
(3.0948e-13 3.13094e-13 0)
(5.13121e-14 3.46748e-13 0)
(-5.12044e-14 5.18754e-13 0)
(-1.84048e-13 3.47001e-13 0)
(-2.8096e-14 4.98723e-13 0)
(1.59963e-13 6.72e-13 0)
(-2.81022e-14 7.07307e-13 0)
(5.7723e-14 4.26303e-13 0)
(9.43683e-14 2.85496e-13 0)
(-3.81683e-13 5.46364e-14 0)
(-7.61553e-13 -2.68717e-13 0)
(-9.07582e-13 -3.36239e-13 0)
(-7.57863e-13 -2.62035e-13 0)
(-5.19058e-13 -2.13293e-14 0)
(-1.67252e-13 1.05028e-13 0)
(1.87464e-13 3.40896e-13 0)
(5.31976e-13 3.90475e-13 0)
(5.85927e-13 1.93574e-13 0)
(3.62487e-13 -5.97642e-14 0)
(1.64634e-13 4.50423e-15 0)
(1.21743e-13 -3.73495e-14 0)
(3.28328e-14 2.69298e-13 0)
(1.09804e-13 1.79007e-13 0)
(3.21033e-13 8.24525e-14 0)
(-2.27186e-14 2.77023e-13 0)
(-3.74249e-13 3.21104e-13 0)
(-4.92295e-13 2.33366e-13 0)
(-4.24705e-13 5.10498e-13 0)
(-5.09437e-13 3.67438e-13 0)
(-6.02729e-13 4.80903e-13 0)
(-1.41278e-13 4.83338e-13 0)
(-4.69778e-14 2.81503e-13 0)
(1.453e-14 3.26628e-13 0)
(1.53825e-13 5.14981e-13 0)
(3.77755e-13 3.22263e-13 0)
(5.3951e-13 -1.7269e-14 0)
(4.89993e-13 -1.22914e-13 0)
(4.91601e-13 -1.78771e-13 0)
(7.72672e-14 1.18719e-13 0)
(-3.05241e-13 1.30066e-13 0)
(-3.37009e-13 1.59228e-13 0)
(-1.37581e-13 7.91582e-14 0)
(1.64314e-13 2.8046e-13 0)
(1.23556e-13 5.26946e-13 0)
(3.84858e-14 2.24808e-13 0)
(1.79128e-13 1.77752e-13 0)
(2.11435e-13 4.30964e-13 0)
(6.85964e-14 6.58636e-13 0)
(-9.19577e-14 5.79713e-13 0)
(-2.03171e-13 7.1548e-13 0)
(-2.15799e-13 7.37024e-13 0)
(-1.91978e-13 5.64497e-13 0)
(-3.25104e-13 5.34381e-13 0)
(-2.77217e-13 3.7669e-13 0)
(1.11474e-13 2.9547e-13 0)
(2.58931e-13 1.34924e-13 0)
(3.35706e-13 3.26075e-13 0)
(3.30441e-13 3.9946e-13 0)
(3.53917e-13 4.69008e-13 0)
(1.69848e-13 4.65865e-13 0)
(4.34425e-15 3.79632e-13 0)
(9.53681e-14 4.97647e-13 0)
(2.64773e-13 5.26974e-13 0)
(2.32201e-13 6.636e-13 0)
(2.56384e-14 7.18724e-13 0)
(-1.99554e-13 7.47431e-13 0)
(-2.99003e-13 6.66947e-13 0)
(-4.56911e-13 6.95108e-13 0)
(-6.32845e-13 6.24609e-13 0)
(-3.55741e-13 5.71468e-13 0)
(-1.94901e-13 7.71461e-13 0)
(-1.68694e-13 7.10623e-13 0)
(-8.50819e-14 5.0811e-13 0)
(-1.60082e-14 4.51481e-13 0)
(-5.27007e-14 4.38603e-13 0)
(-4.73309e-15 4.07362e-13 0)
(1.2583e-13 4.25868e-13 0)
(1.19457e-13 4.24761e-13 0)
(2.32139e-13 3.8145e-13 0)
(3.04407e-13 5.04979e-13 0)
(1.1983e-13 6.19775e-13 0)
(-2.61354e-13 5.63121e-13 0)
(-5.27447e-13 5.42336e-13 0)
(-6.19333e-13 4.54764e-13 0)
(-3.68078e-13 5.18616e-13 0)
(-2.50548e-13 7.47218e-13 0)
(-2.46399e-13 6.18431e-13 0)
(-2.5069e-14 7.48498e-13 0)
(4.40471e-14 7.01988e-13 0)
(2.00352e-13 4.26293e-13 0)
(1.71659e-13 5.80841e-13 0)
(2.89514e-13 2.73139e-13 0)
(2.98542e-13 1.80787e-13 0)
(5.716e-13 3.64965e-13 0)
(7.29685e-13 3.3371e-13 0)
(7.35405e-13 3.68111e-13 0)
(5.73781e-13 2.85647e-13 0)
(2.64097e-13 3.8364e-13 0)
(3.25919e-13 3.95645e-13 0)
(-4.72255e-14 3.27412e-13 0)
(-5.27045e-13 1.85678e-13 0)
(-5.33201e-13 3.12739e-14 0)
(-3.73753e-13 -4.14363e-14 0)
(-2.91212e-13 2.62442e-14 0)
(-2.15359e-13 2.68095e-13 0)
(-2.31059e-13 1.70666e-13 0)
(-2.4611e-13 2.97738e-13 0)
(-4.64968e-14 2.70198e-13 0)
(-8.6075e-14 3.73946e-13 0)
(-1.38488e-13 1.52407e-13 0)
(1.03119e-13 9.87192e-14 0)
(2.65753e-13 1.73566e-13 0)
(1.90623e-13 2.12742e-13 0)
(2.1549e-14 4.57593e-13 0)
(-5.85627e-14 2.01055e-13 0)
(-1.45454e-13 1.18724e-14 0)
(-1.97758e-13 -1.9843e-13 0)
(-1.39803e-13 -1.33363e-13 0)
(-2.22804e-14 4.1947e-14 0)
(1.49383e-13 1.86001e-13 0)
(1.12692e-13 3.06201e-13 0)
(9.16133e-15 1.81623e-13 0)
(-3.26453e-14 1.65536e-13 0)
(-1.262e-13 -4.57368e-14 0)
(-3.18168e-13 -1.79811e-13 0)
(-2.31024e-13 -2.59201e-13 0)
(-2.55844e-13 -1.41552e-13 0)
(-3.00855e-13 1.67616e-13 0)
(-1.9544e-13 6.83491e-14 0)
(-1.0852e-13 1.20747e-13 0)
(-9.74827e-14 2.26113e-13 0)
(-2.38874e-13 1.6054e-13 0)
(-1.12574e-13 1.88639e-13 0)
(1.32954e-13 8.50232e-14 0)
(2.6601e-13 2.12039e-13 0)
(2.53057e-13 2.10103e-13 0)
(8.36562e-14 4.2993e-13 0)
(5.53779e-14 6.9013e-13 0)
(9.2983e-14 6.20335e-13 0)
(1.09491e-13 5.46486e-13 0)
(3.11407e-13 6.36687e-13 0)
(3.56619e-13 6.72244e-13 0)
(1.47735e-13 5.15403e-13 0)
(1.69887e-13 4.07121e-13 0)
(4.05359e-13 3.26962e-13 0)
(3.32779e-13 3.72713e-13 0)
(1.51604e-13 2.62575e-13 0)
(1.05072e-13 2.66144e-13 0)
(4.00966e-14 2.88022e-13 0)
(-1.21516e-13 1.87817e-13 0)
(-7.02351e-14 1.43795e-13 0)
(-1.121e-13 1.34051e-13 0)
(-2.34007e-13 1.88808e-13 0)
(-6.95902e-14 3.27114e-13 0)
(2.42904e-15 4.89621e-13 0)
(-1.12224e-13 3.47751e-13 0)
(-2.56336e-13 5.11605e-13 0)
(-8.96659e-14 4.03726e-13 0)
(-1.34745e-13 3.4855e-13 0)
(-4.04459e-14 2.32521e-13 0)
(2.14259e-13 2.49167e-13 0)
(1.2735e-13 2.08929e-13 0)
(-1.30257e-13 3.29184e-13 0)
(-2.53644e-13 2.96972e-13 0)
(-1.39173e-13 3.62641e-13 0)
(1.04948e-13 5.46226e-13 0)
(2.22757e-13 5.19524e-13 0)
(2.01698e-13 2.93877e-13 0)
(2.41603e-13 2.80271e-13 0)
(1.44453e-13 1.5731e-13 0)
(-7.61086e-14 4.07803e-13 0)
(4.37158e-15 5.03154e-13 0)
(1.35131e-13 4.43273e-13 0)
(-1.17487e-13 4.54408e-13 0)
(-2.00908e-13 4.46529e-13 0)
(-1.3377e-13 7.84187e-14 0)
(-5.06494e-13 -4.07085e-14 0)
(-7.85885e-13 8.47934e-14 0)
(-7.96168e-13 3.13878e-14 0)
(-6.38827e-13 1.02896e-13 0)
(-3.97228e-13 2.74299e-13 0)
(-4.47789e-14 1.78897e-13 0)
(2.86886e-13 2.59659e-13 0)
(3.67459e-13 2.6211e-13 0)
(2.56832e-13 3.04007e-13 0)
(2.99256e-13 1.61834e-13 0)
(2.74639e-13 6.65355e-14 0)
(2.24799e-13 1.72068e-14 0)
(3.91192e-14 -2.69887e-14 0)
(8.32429e-14 1.60624e-13 0)
(3.07854e-13 1.44133e-13 0)
(-2.01255e-14 6.9526e-14 0)
(-3.4722e-13 1.36421e-13 0)
(-2.33935e-13 2.80968e-13 0)
(-2.75379e-13 3.93251e-13 0)
(-5.73331e-13 4.33463e-13 0)
(-5.82299e-13 4.56592e-13 0)
(-2.46699e-13 5.08322e-13 0)
(-7.90859e-14 3.42774e-13 0)
(1.14146e-13 3.82596e-13 0)
(1.59602e-13 2.96801e-13 0)
(9.48344e-14 3.22074e-13 0)
(2.83946e-13 1.41108e-13 0)
(4.63973e-13 5.32662e-15 0)
(6.38989e-13 -6.45395e-14 0)
(1.95568e-13 6.56738e-14 0)
(-2.19416e-13 2.48721e-13 0)
(-2.32275e-13 4.42021e-13 0)
(-5.56381e-14 5.52724e-13 0)
(2.22634e-13 5.30399e-13 0)
(7.43624e-14 3.67429e-13 0)
(-1.68366e-14 4.27911e-13 0)
(2.47233e-13 3.2241e-13 0)
(2.53068e-13 2.40063e-13 0)
(8.04125e-15 2.23881e-13 0)
(-4.57913e-14 3.69108e-13 0)
(-8.33629e-14 4.75339e-13 0)
(-2.66472e-13 3.3314e-13 0)
(-2.83731e-13 3.2558e-13 0)
(-2.42072e-13 3.45795e-13 0)
(-2.2701e-13 4.98689e-13 0)
(-1.00906e-13 2.4333e-13 0)
(1.75715e-13 6.45693e-14 0)
(3.58663e-13 -9.0669e-15 0)
(3.55829e-13 1.31975e-13 0)
(3.67309e-13 1.96351e-13 0)
(1.95553e-13 2.09214e-13 0)
(7.42103e-14 2.00501e-13 0)
(2.13401e-13 2.71145e-13 0)
(2.59047e-13 2.09092e-13 0)
(1.41573e-13 7.74126e-14 0)
(-3.25042e-14 1.2603e-13 0)
(-2.31525e-13 5.06096e-14 0)
(-3.10368e-13 1.50584e-13 0)
(-4.19301e-13 1.45363e-13 0)
(-4.78617e-13 4.05699e-13 0)
(-1.46287e-13 3.99402e-13 0)
(-1.08539e-13 5.67137e-13 0)
(-3.31074e-13 4.46731e-13 0)
(-2.81797e-13 3.7294e-13 0)
(-1.00404e-13 3.22513e-13 0)
(-9.4528e-14 1.92279e-13 0)
(1.09574e-13 1.49228e-13 0)
(2.04293e-13 3.26207e-13 0)
(8.18536e-14 2.23536e-13 0)
(2.30873e-13 2.08477e-13 0)
(3.55408e-13 2.23754e-13 0)
(1.30637e-13 2.38279e-13 0)
(-3.54483e-13 2.71429e-13 0)
(-6.49002e-13 2.96831e-13 0)
(-5.54416e-13 3.91363e-13 0)
(-2.17277e-13 4.85586e-13 0)
(-2.80456e-13 4.56667e-13 0)
(-2.78568e-13 3.10918e-13 0)
(-2.08344e-14 2.26801e-13 0)
(-6.57087e-14 2.18239e-13 0)
(3.11749e-13 5.08325e-13 0)
(1.64534e-13 5.46405e-13 0)
(1.09625e-13 5.14197e-13 0)
(3.74634e-13 4.80547e-13 0)
(6.18555e-13 3.75242e-13 0)
(7.25835e-13 2.95412e-13 0)
(6.87221e-13 2.05142e-13 0)
(5.22077e-13 2.05439e-13 0)
(3.21259e-13 2.51612e-13 0)
(3.11128e-13 2.46676e-13 0)
(-1.70866e-13 2.77099e-13 0)
(-5.77371e-13 3.13394e-13 0)
(-5.00043e-13 2.47804e-13 0)
(-3.10213e-13 2.80881e-13 0)
(-1.03619e-13 2.9803e-13 0)
(-2.0116e-13 2.88303e-13 0)
(-3.69745e-13 2.09809e-13 0)
(-2.09766e-13 2.1425e-13 0)
(5.84543e-15 2.67679e-13 0)
(-1.20619e-13 2.11373e-13 0)
(-1.78867e-13 3.78084e-13 0)
(1.52487e-13 4.10403e-13 0)
(2.78652e-13 6.07076e-13 0)
(3.3871e-13 4.28758e-13 0)
(-1.96182e-15 4.50968e-13 0)
(-2.81918e-13 4.52326e-13 0)
(-2.2564e-13 4.34893e-13 0)
(-1.93521e-13 2.30546e-13 0)
(-5.46135e-14 2.80247e-13 0)
(7.45393e-15 3.08557e-13 0)
(2.31486e-13 1.38796e-13 0)
(1.21349e-13 1.23945e-13 0)
(-6.32668e-14 -1.10879e-13 0)
(-8.6572e-14 -8.59229e-14 0)
(-1.47133e-13 -1.27131e-13 0)
(-3.35707e-13 2.65578e-14 0)
(-2.9448e-13 -1.24266e-15 0)
(-6.23497e-14 -1.21948e-13 0)
(-1.57764e-13 -1.94056e-14 0)
(-1.57398e-13 7.34749e-14 0)
(-2.62979e-14 1.67772e-13 0)
(-8.33501e-14 1.27641e-13 0)
(-2.55668e-13 2.62367e-13 0)
(-8.45662e-14 3.50614e-13 0)
(1.26019e-13 5.068e-13 0)
(3.22482e-13 4.85273e-13 0)
(4.20051e-13 5.95547e-13 0)
(3.05029e-13 6.74298e-13 0)
(4.08594e-14 5.95468e-13 0)
(-4.50648e-14 6.23795e-13 0)
(1.78273e-13 6.42679e-13 0)
(3.94993e-13 7.57872e-13 0)
(3.01077e-13 7.50554e-13 0)
(8.45047e-15 6.89533e-13 0)
(-1.67406e-14 5.12113e-13 0)
(2.84478e-13 4.00424e-13 0)
(2.46375e-13 2.34629e-13 0)
(2.41323e-14 1.03795e-13 0)
(2.19715e-13 1.77566e-13 0)
(1.24229e-13 2.10474e-13 0)
(-1.17903e-13 5.18476e-13 0)
(-7.01941e-14 6.65669e-13 0)
(-6.43062e-14 5.61791e-13 0)
(-7.96615e-14 6.81066e-13 0)
(5.70421e-14 6.51572e-13 0)
(-1.64499e-14 5.64791e-13 0)
(-1.20169e-13 5.08219e-13 0)
(-2.18462e-13 5.47125e-13 0)
(-2.59985e-13 5.05379e-13 0)
(-1.69321e-13 5.1785e-13 0)
(-2.10854e-14 4.96905e-13 0)
(8.31467e-14 5.66802e-13 0)
(9.84987e-14 4.85528e-13 0)
(-7.59617e-14 2.96678e-13 0)
(-1.81794e-13 4.21856e-13 0)
(-2.26146e-14 3.8899e-13 0)
(1.11112e-13 4.47776e-13 0)
(1.26518e-13 4.91312e-13 0)
(1.34951e-13 4.54768e-13 0)
(3.48551e-14 4.20528e-13 0)
(1.22371e-13 2.08989e-13 0)
(1.25522e-13 2.20307e-13 0)
(1.5098e-14 1.59522e-13 0)
(1.19501e-13 6.97249e-14 0)
(-1.28733e-14 1.23298e-13 0)
(-3.32698e-13 3.72026e-13 0)
(-4.4869e-13 4.98297e-13 0)
(-4.44261e-13 3.89582e-13 0)
(-6.38226e-13 5.16822e-13 0)
(-7.25569e-13 4.33518e-13 0)
(-5.02324e-13 4.95918e-13 0)
(-2.77028e-13 5.03867e-13 0)
(-4.30413e-14 4.05438e-13 0)
(2.5166e-13 4.73204e-13 0)
(4.54006e-13 3.50161e-13 0)
(3.5599e-13 5.58281e-13 0)
(1.37861e-13 5.31961e-13 0)
(1.17584e-13 5.134e-13 0)
(1.07156e-13 3.96397e-13 0)
(1.49431e-13 3.03693e-13 0)
(2.03701e-13 3.3533e-13 0)
(2.26257e-13 4.02071e-13 0)
(-5.61936e-14 4.54863e-13 0)
(-2.24681e-13 5.38745e-13 0)
(-2.57488e-13 4.79728e-13 0)
(-2.99957e-13 2.4786e-13 0)
(-5.33129e-13 2.09001e-13 0)
(-5.14606e-13 3.98039e-13 0)
(-1.98127e-13 4.79914e-13 0)
(-7.45297e-14 4.64577e-13 0)
(-4.51234e-14 4.65427e-13 0)
(7.40833e-14 3.32122e-13 0)
(1.65335e-13 3.75414e-13 0)
(1.88108e-13 3.28734e-13 0)
(2.93023e-13 2.78512e-13 0)
(5.25439e-13 1.22744e-13 0)
(3.42923e-13 -3.35495e-14 0)
(8.85786e-14 2.87862e-13 0)
(-4.58029e-14 4.46273e-13 0)
(-4.31491e-14 3.90486e-13 0)
(5.49201e-14 3.44779e-13 0)
(3.05048e-14 2.10753e-13 0)
(-5.6402e-15 5.23414e-13 0)
(7.98276e-14 3.54484e-13 0)
(1.8894e-13 2.49259e-13 0)
(1.69344e-13 2.51257e-13 0)
(7.2375e-14 4.61808e-13 0)
(-1.55529e-13 3.83908e-13 0)
(-2.39771e-13 4.82249e-13 0)
(-1.3045e-13 6.42403e-13 0)
(-2.01467e-13 6.48753e-13 0)
(-3.96397e-13 5.23666e-13 0)
(-3.39815e-13 2.79865e-13 0)
(8.8082e-14 3.20914e-13 0)
(3.5475e-13 2.33495e-13 0)
(4.18147e-13 1.95323e-13 0)
(3.38075e-13 1.23728e-13 0)
(1.52658e-13 9.44774e-14 0)
(1.25324e-13 1.0104e-13 0)
(1.79682e-13 1.47638e-13 0)
(1.05824e-13 -1.67273e-14 0)
(6.88138e-14 -1.38135e-13 0)
(-1.04629e-14 -2.24714e-13 0)
(-1.47401e-13 -3.00933e-13 0)
(-2.66674e-13 -2.23164e-13 0)
(-1.82164e-13 -8.14235e-14 0)
(-2.45729e-13 1.56461e-13 0)
(-8.64553e-14 2.0294e-13 0)
(-1.00435e-13 2.57661e-13 0)
(-3.02425e-13 2.54571e-13 0)
(-1.74742e-13 2.52353e-13 0)
(-1.44668e-13 3.49696e-13 0)
(-1.75626e-13 3.76611e-13 0)
(7.39069e-14 4.2254e-13 0)
(9.28844e-14 3.15401e-13 0)
(9.35259e-15 9.39249e-14 0)
(2.72056e-13 2.7311e-13 0)
(2.79518e-13 2.29037e-13 0)
(7.78798e-14 1.45148e-13 0)
(-2.85202e-13 2.15211e-13 0)
(-5.07721e-13 4.354e-13 0)
(-4.74486e-13 3.81187e-13 0)
(-2.73472e-13 4.07412e-13 0)
(-3.25537e-13 3.24096e-13 0)
(-3.90714e-13 3.71304e-13 0)
(-1.85158e-13 2.04865e-13 0)
(5.29559e-14 1.91057e-13 0)
(1.76415e-13 5.97537e-13 0)
(1.71385e-13 4.96731e-13 0)
(1.88999e-13 6.4405e-13 0)
(1.46424e-13 6.7733e-13 0)
(4.05896e-13 5.07386e-13 0)
(5.70746e-13 2.8985e-13 0)
(6.52054e-13 2.1168e-13 0)
(6.17866e-13 2.27807e-13 0)
(3.74808e-13 3.57412e-13 0)
(3.29009e-13 3.38364e-13 0)
(-1.26549e-14 3.37756e-13 0)
(-5.15476e-13 4.17076e-13 0)
(-5.86942e-13 4.97919e-13 0)
(-3.80892e-13 7.18497e-13 0)
(-2.76347e-13 7.04624e-13 0)
(-2.47585e-13 4.32483e-13 0)
(-2.43233e-13 4.8835e-13 0)
(-1.93537e-13 5.21935e-13 0)
(-9.38759e-14 5.86905e-13 0)
(-6.01897e-14 4.67732e-13 0)
(1.22109e-14 6.13925e-13 0)
(3.11138e-13 5.62291e-13 0)
(2.40104e-13 7.20757e-13 0)
(1.41742e-13 4.92979e-13 0)
(8.17208e-14 3.30648e-13 0)
(-9.35989e-14 5.48187e-13 0)
(-3.20157e-13 7.16504e-13 0)
(-3.63909e-13 6.21772e-13 0)
(-9.19068e-14 4.92649e-13 0)
(-1.34125e-13 4.50844e-13 0)
(2.23456e-15 3.46239e-13 0)
(-6.87104e-14 1.44621e-13 0)
(-1.56609e-13 2.5912e-14 0)
(-2.77482e-14 -4.94386e-14 0)
(-2.076e-14 2.29917e-14 0)
(-1.45169e-13 2.57287e-13 0)
(-3.88585e-13 3.3149e-13 0)
(-2.15076e-13 2.43619e-13 0)
(-3.42356e-14 1.76674e-13 0)
(5.21935e-14 3.13564e-13 0)
(-9.92803e-15 2.85242e-13 0)
(3.47082e-14 2.59126e-13 0)
(-2.4129e-14 3.56512e-13 0)
(3.70993e-14 6.23284e-13 0)
(2.27005e-13 6.37411e-13 0)
(4.07595e-13 8.13289e-13 0)
(4.60876e-13 1.06613e-12 0)
(1.31283e-13 8.40559e-13 0)
(-3.12361e-14 6.0901e-13 0)
(6.25326e-14 7.04526e-13 0)
(2.12204e-13 8.93727e-13 0)
(4.79131e-13 8.55445e-13 0)
(2.96884e-13 7.36302e-13 0)
(-9.53636e-14 7.12124e-13 0)
(-1.35551e-13 6.43404e-13 0)
(1.098e-13 7.62823e-13 0)
(2.18597e-14 4.69029e-13 0)
(7.1085e-14 3.1182e-13 0)
(2.04428e-13 3.0498e-13 0)
(3.24702e-13 2.99995e-13 0)
(2.99104e-13 6.92443e-13 0)
(-1.19078e-13 8.51673e-13 0)
(-9.91373e-14 9.85499e-13 0)
(-1.05869e-13 9.07118e-13 0)
(-1.87887e-13 7.23787e-13 0)
(-7.80058e-14 4.38345e-13 0)
(-1.21454e-13 4.35861e-13 0)
(-2.39875e-13 3.56154e-13 0)
(-1.60235e-13 4.38028e-13 0)
(-1.12662e-13 6.7136e-13 0)
(-2.25038e-14 5.8995e-13 0)
(1.88686e-13 7.61527e-13 0)
(-1.22581e-13 7.26413e-13 0)
(-1.71113e-13 4.62139e-13 0)
(-1.47213e-13 6.36156e-13 0)
(-1.30445e-13 5.10038e-13 0)
(1.59385e-13 4.3025e-13 0)
(2.03587e-13 4.22349e-13 0)
(1.77618e-13 4.4015e-13 0)
(-4.84391e-14 5.85002e-13 0)
(-7.77937e-14 6.22238e-13 0)
(-6.01015e-14 3.17267e-13 0)
(9.30777e-15 2.31778e-13 0)
(2.03359e-13 3.25707e-13 0)
(1.06296e-13 4.03855e-13 0)
(-2.88732e-14 5.12618e-13 0)
(-3.12483e-13 8.31075e-13 0)
(-4.7515e-13 9.60292e-13 0)
(-6.28649e-13 9.0002e-13 0)
(-7.78413e-13 7.96474e-13 0)
(-5.4137e-13 7.18315e-13 0)
(-3.78331e-13 7.01923e-13 0)
(-9.48486e-14 6.17912e-13 0)
(1.76267e-13 6.75005e-13 0)
(4.39956e-13 6.54019e-13 0)
(4.42267e-13 7.27507e-13 0)
(2.75828e-13 8.26967e-13 0)
(9.35824e-14 8.65679e-13 0)
(-8.63027e-14 7.05025e-13 0)
(-1.70326e-14 7.15493e-13 0)
(1.06217e-13 5.94576e-13 0)
(3.29402e-13 5.11711e-13 0)
(8.44292e-14 6.26689e-13 0)
(-2.74804e-13 5.57893e-13 0)
(-4.16158e-13 5.30189e-13 0)
(-4.17256e-13 4.35733e-13 0)
(-4.52279e-13 4.97557e-13 0)
(-3.82525e-13 7.42314e-13 0)
(-1.70623e-13 7.14686e-13 0)
(-1.05863e-13 6.00156e-13 0)
(-6.79962e-14 6.50459e-13 0)
(-2.2281e-15 6.48153e-13 0)
(7.80127e-14 6.15208e-13 0)
(2.05502e-13 5.77002e-13 0)
(1.99465e-13 4.61317e-13 0)
(1.72323e-13 2.51014e-13 0)
(3.49301e-13 1.0296e-13 0)
(3.10433e-13 1.04815e-13 0)
(-6.31678e-14 1.53095e-13 0)
(-1.62958e-13 1.76224e-13 0)
(2.43547e-14 2.10188e-13 0)
(2.2726e-13 2.71422e-13 0)
(1.75727e-13 4.74033e-13 0)
(2.66482e-15 4.60685e-13 0)
(1.4617e-13 4.96446e-13 0)
(2.52456e-13 3.56412e-13 0)
(4.7051e-14 5.06767e-13 0)
(-1.37565e-13 4.23782e-13 0)
(1.25106e-14 7.00264e-13 0)
(-5.31159e-14 7.37032e-13 0)
(-4.03044e-13 6.08912e-13 0)
(-6.21994e-13 4.20786e-13 0)
(-3.20396e-13 4.60775e-13 0)
(1.57685e-13 5.26305e-13 0)
(2.72936e-13 4.68424e-13 0)
(2.47788e-13 4.09746e-13 0)
(2.37884e-13 3.8053e-13 0)
(1.20168e-13 3.13176e-13 0)
(1.57591e-13 2.34718e-13 0)
(9.22763e-14 1.27502e-13 0)
(-5.83096e-14 6.50107e-14 0)
(-2.3038e-14 1.33837e-13 0)
(-1.34756e-13 2.31809e-14 0)
(-2.10257e-13 -6.03627e-14 0)
(-1.65556e-13 2.46427e-14 0)
(-6.2592e-14 1.01971e-13 0)
(-8.51809e-14 6.38678e-14 0)
(-4.45947e-15 2.44924e-13 0)
(-6.11673e-14 9.66089e-14 0)
(-3.96111e-13 2.71146e-13 0)
(-1.45912e-13 2.24714e-13 0)
(-4.60143e-14 3.04719e-13 0)
(-8.27207e-14 3.48162e-13 0)
(2.0518e-14 3.47221e-13 0)
(-1.12411e-13 1.53553e-13 0)
(7.53671e-14 2.35326e-13 0)
(3.09032e-13 2.23559e-13 0)
(2.01722e-13 5.5689e-14 0)
(1.10845e-13 -6.50218e-14 0)
(-1.0553e-13 1.04154e-13 0)
(-4.7238e-13 3.25566e-13 0)
(-5.69354e-13 4.33259e-13 0)
(-2.85568e-13 3.62829e-13 0)
(-2.58256e-13 2.53307e-13 0)
(-3.60425e-13 3.91592e-13 0)
(-1.73814e-13 3.89447e-13 0)
(-7.50829e-14 4.86769e-13 0)
(3.05654e-13 7.77095e-13 0)
(2.52911e-13 8.72034e-13 0)
(2.58872e-13 1.04458e-12 0)
(1.49545e-13 1.0848e-12 0)
(3.04847e-13 9.31312e-13 0)
(5.27854e-13 7.50991e-13 0)
(5.97093e-13 7.10464e-13 0)
(5.74737e-13 6.06319e-13 0)
(5.35839e-13 6.1828e-13 0)
(3.61965e-13 4.81141e-13 0)
(-1.07616e-13 3.26468e-13 0)
(-4.69984e-13 3.92323e-13 0)
(-2.6595e-13 5.92997e-13 0)
(-1.31249e-13 8.67177e-13 0)
(-4.49095e-13 8.42687e-13 0)
(-3.95626e-13 8.53609e-13 0)
(-2.19357e-13 1.05337e-12 0)
(-1.62569e-13 1.02888e-12 0)
(-5.66819e-14 9.95607e-13 0)
(-1.1781e-13 9.09055e-13 0)
(-9.93785e-14 9.83637e-13 0)
(2.09616e-13 8.30301e-13 0)
(1.9515e-13 6.88391e-13 0)
(-9.35685e-14 6.84964e-13 0)
(-2.61496e-14 4.84953e-13 0)
(8.18837e-14 5.29438e-13 0)
(-1.52795e-13 6.68539e-13 0)
(-4.29774e-13 9.32897e-13 0)
(-3.31708e-13 6.96347e-13 0)
(-1.08579e-13 5.04272e-13 0)
(-2.08294e-14 6.15014e-13 0)
(-1.14693e-13 3.89154e-13 0)
(-2.18049e-13 3.01866e-13 0)
(-7.33641e-14 1.99759e-13 0)
(1.31628e-13 2.48467e-13 0)
(1.79091e-14 2.73645e-13 0)
(-1.77335e-13 5.21415e-13 0)
(-2.18442e-13 6.59507e-13 0)
(-7.56664e-14 7.64595e-13 0)
(1.38402e-14 7.81973e-13 0)
(-1.17098e-14 6.48453e-13 0)
(3.58403e-14 6.56288e-13 0)
(1.24812e-13 6.69523e-13 0)
(1.68791e-13 7.85258e-13 0)
(3.23216e-13 7.99646e-13 0)
(6.88177e-13 1.00981e-12 0)
(4.43715e-13 1.04389e-12 0)
(-2.10814e-14 8.96158e-13 0)
(-8.90384e-14 9.75883e-13 0)
(1.84691e-13 9.29378e-13 0)
(2.86811e-13 1.15287e-12 0)
(2.37056e-13 1.06383e-12 0)
(1.86137e-13 7.92233e-13 0)
(-5.22201e-14 6.49399e-13 0)
(5.05823e-14 8.66515e-13 0)
(8.63422e-15 9.14284e-13 0)
(-2.40203e-13 7.97532e-13 0)
(-4.96519e-14 6.86778e-13 0)
(1.77312e-13 6.0041e-13 0)
(4.53053e-13 6.19939e-13 0)
(4.11334e-13 5.30794e-13 0)
(1.13823e-13 6.74746e-13 0)
(-4.25962e-14 7.74025e-13 0)
(-2.53197e-13 6.58097e-13 0)
(-3.17897e-13 6.47575e-13 0)
(-2.16562e-13 7.00265e-13 0)
(-1.73113e-13 5.91082e-13 0)
(-2.1883e-13 5.1712e-13 0)
(-1.03644e-15 5.28308e-13 0)
(-3.44648e-14 5.24107e-13 0)
(-1.03033e-14 6.20447e-13 0)
(2.21593e-13 5.20911e-13 0)
(-1.76711e-13 4.46986e-13 0)
(-1.69829e-13 5.087e-13 0)
(-7.61287e-14 5.73475e-13 0)
(-1.77707e-13 7.38214e-13 0)
(5.09504e-14 8.36307e-13 0)
(1.02577e-13 7.28337e-13 0)
(1.81329e-13 6.57501e-13 0)
(1.27196e-13 5.20481e-13 0)
(-1.49076e-13 6.12181e-13 0)
(-2.35118e-13 5.16219e-13 0)
(7.45635e-14 5.31199e-13 0)
(3.29815e-13 4.86086e-13 0)
(1.84913e-13 6.30555e-13 0)
(6.0172e-14 6.2688e-13 0)
(-1.20454e-13 7.74926e-13 0)
(-4.96727e-13 9.5319e-13 0)
(-6.9986e-13 7.80035e-13 0)
(-8.17089e-13 9.53596e-13 0)
(-5.54673e-13 8.84544e-13 0)
(-3.73018e-13 1.01772e-12 0)
(-1.69517e-13 8.71472e-13 0)
(1.88043e-13 7.94238e-13 0)
(5.04802e-13 7.28771e-13 0)
(4.83295e-13 5.97866e-13 0)
(2.32102e-13 6.00576e-13 0)
(2.15996e-14 5.67441e-13 0)
(-1.97127e-14 6.99257e-13 0)
(6.21094e-14 6.72664e-13 0)
(2.40067e-14 7.16734e-13 0)
(1.97462e-13 7.02664e-13 0)
(9.22249e-15 5.23265e-13 0)
(-2.35338e-13 5.56607e-13 0)
(-3.14551e-13 7.00641e-13 0)
(-3.73701e-13 7.66919e-13 0)
(-2.83489e-13 8.09806e-13 0)
(-2.99636e-13 8.70814e-13 0)
(-3.00299e-13 8.82264e-13 0)
(-1.80417e-13 7.73121e-13 0)
(2.53871e-14 8.75073e-13 0)
(5.98958e-14 8.70243e-13 0)
(1.10556e-13 8.78915e-13 0)
(8.11538e-15 7.6613e-13 0)
(-8.99656e-15 5.66783e-13 0)
(1.74381e-13 5.10543e-13 0)
(1.57307e-13 5.38625e-13 0)
(1.26957e-13 4.20979e-13 0)
(4.89317e-14 3.5323e-13 0)
(1.26844e-14 4.00919e-13 0)
(1.44838e-13 4.78106e-13 0)
(3.26745e-13 6.05814e-13 0)
(2.2197e-13 4.78673e-13 0)
(1.19066e-13 5.18866e-13 0)
(9.7985e-14 4.79291e-13 0)
(1.61377e-13 4.29402e-13 0)
(9.13926e-14 4.47257e-13 0)
(-1.42708e-14 6.02294e-13 0)
(9.47726e-14 6.37743e-13 0)
(-1.7337e-13 5.4669e-13 0)
(-5.13883e-13 5.22261e-13 0)
(-5.66948e-13 5.49736e-13 0)
(-3.09561e-13 6.45745e-13 0)
(9.91098e-14 7.53149e-13 0)
(3.21535e-13 7.42341e-13 0)
(3.82433e-13 8.36692e-13 0)
(2.03107e-13 7.83856e-13 0)
(-4.76677e-15 7.1311e-13 0)
(-5.98144e-14 6.42508e-13 0)
(-3.13123e-14 5.00695e-13 0)
(1.68114e-14 5.33006e-13 0)
(-1.24008e-14 5.2287e-13 0)
(-1.53689e-13 5.35849e-13 0)
(-1.71141e-13 6.07012e-13 0)
(-1.99306e-13 5.72099e-13 0)
(-1.54988e-13 5.35371e-13 0)
(-9.86956e-14 3.88199e-13 0)
(-1.06124e-13 5.15748e-13 0)
(-1.20124e-13 3.65134e-13 0)
(-1.91757e-13 4.50682e-13 0)
(-1.57197e-13 5.83389e-13 0)
(-1.4264e-13 6.1048e-13 0)
(-1.77362e-13 6.6113e-13 0)
(-1.02553e-13 5.47504e-13 0)
(-3.49778e-14 4.32103e-13 0)
(1.53824e-14 5.62703e-13 0)
(7.38221e-14 4.05848e-13 0)
(4.49444e-15 2.79145e-13 0)
(1.18348e-13 1.46323e-13 0)
(1.20246e-13 2.5445e-13 0)
(-1.77503e-13 3.14779e-13 0)
(-3.40567e-13 5.96676e-13 0)
(-3.63366e-13 6.85215e-13 0)
(-3.04357e-13 5.41045e-13 0)
(-2.19773e-13 6.16604e-13 0)
(3.62145e-14 7.11411e-13 0)
(6.99636e-14 7.58203e-13 0)
(3.69049e-13 1.3035e-12 0)
(4.77316e-13 1.39103e-12 0)
(3.18007e-13 1.3257e-12 0)
(-1.91454e-14 1.14418e-12 0)
(1.35623e-13 9.98946e-13 0)
(3.80955e-13 9.32562e-13 0)
(4.16441e-13 1.00954e-12 0)
(5.09883e-13 1.09196e-12 0)
(2.67984e-13 9.22696e-13 0)
(1.27967e-13 6.72096e-13 0)
(-2.86319e-14 7.28764e-13 0)
(-2.9822e-13 8.31312e-13 0)
(-1.89101e-13 8.71181e-13 0)
(-1.3684e-13 7.08878e-13 0)
(-2.77502e-13 7.40805e-13 0)
(-8.98772e-14 1.03799e-12 0)
(-9.65761e-14 1.33316e-12 0)
(-2.63793e-13 1.41091e-12 0)
(-1.88933e-13 1.36536e-12 0)
(-5.12577e-14 1.22672e-12 0)
(-8.73651e-14 1.28662e-12 0)
(-4.17337e-14 1.03902e-12 0)
(2.3352e-13 9.04755e-13 0)
(-8.10333e-14 9.34972e-13 0)
(-1.01575e-13 9.98681e-13 0)
(7.57504e-14 9.40973e-13 0)
(1.14214e-14 8.54213e-13 0)
(-3.42272e-13 1.00319e-12 0)
(-5.04599e-13 9.36972e-13 0)
(-1.754e-13 8.36515e-13 0)
(-1.54453e-13 6.79539e-13 0)