/*--------------------------------*- C++ -*----------------------------------*\
  =========                 |
  \\      /  F ield         | OpenFOAM: The Open Source CFD Toolbox
   \\    /   O peration     | Website:  https://openfoam.org
    \\  /    A nd           | Version:  13
     \\/     M anipulation  |
\*---------------------------------------------------------------------------*/
FoamFile
{
    format      ascii;
    class       volVectorField;
    location    "0.0009";
    object      U;
}
// * * * * * * * * * * * * * * * * * * * * * * * * * * * * * * * * * * * * * //

dimensions      [0 1 -1 0 0 0 0];

internalField   nonuniform List<vector> 
33333
(
(2.82988e-15 8.97201e-14 0)
(8.64944e-14 -9.49863e-14 0)
(-2.61372e-14 -6.91422e-14 0)
(-2.02483e-13 -1.09984e-13 0)
(-1.20475e-13 -1.00127e-13 0)
(1.68686e-14 -1.49284e-13 0)
(-3.11559e-14 -1.1304e-13 0)
(3.14503e-14 -2.78655e-14 0)
(1.37413e-13 -7.53068e-14 0)
(7.85417e-14 -1.3666e-13 0)
(3.94564e-14 -2.00849e-13 0)
(-3.00857e-14 -2.68141e-13 0)
(-7.04822e-15 -1.59406e-13 0)
(-2.41305e-14 -1.79233e-13 0)
(-7.56048e-14 -6.11439e-14 0)
(1.4523e-13 -8.99928e-14 0)
(2.52154e-13 -1.81827e-13 0)
(1.05895e-13 -1.48168e-13 0)
(-1.21948e-14 -1.94784e-13 0)
(-6.41216e-14 -9.62331e-14 0)
(-8.88874e-15 -5.88921e-14 0)
(8.81567e-14 -1.36708e-13 0)
(-1.34969e-14 -2.78487e-13 0)
(2.89635e-14 -2.08911e-13 0)
(2.52785e-14 -1.49637e-13 0)
(-2.84312e-14 -1.51859e-13 0)
(-3.25151e-14 -2.13353e-13 0)
(-9.55792e-14 -1.32092e-13 0)
(-1.16897e-13 -1.60133e-13 0)
(-1.86736e-13 -1.87171e-13 0)
(-1.94911e-13 -2.08101e-13 0)
(-1.66688e-13 -6.6626e-14 0)
(-8.8959e-14 8.37672e-14 0)
(1.2055e-13 -3.10169e-14 0)
(2.7592e-13 -2.09828e-13 0)
(2.32811e-13 -2.90896e-13 0)
(1.55008e-13 -2.61297e-13 0)
(1.44086e-13 -1.16334e-13 0)
(1.76069e-13 -1.40043e-13 0)
(1.50052e-13 -1.62197e-13 0)
(9.95291e-14 -2.55057e-13 0)
(9.42878e-14 -1.77205e-13 0)
(4.12863e-14 -2.19408e-13 0)
(2.34255e-14 -3.25035e-13 0)
(1.21129e-14 -2.66247e-13 0)
(-1.12137e-14 -3.07943e-13 0)
(-4.36128e-14 -2.6662e-13 0)
(3.99e-14 -3.07664e-13 0)
(9.90912e-14 -2.90907e-13 0)
(3.35892e-14 -2.3506e-13 0)
(3.89039e-14 -1.75326e-13 0)
(1.56786e-13 -2.02995e-13 0)
(2.16676e-13 -1.64364e-13 0)
(1.19847e-13 -1.33697e-13 0)
(-3.22262e-14 -8.57485e-14 0)
(-2.35911e-14 -3.2624e-14 0)
(-5.27097e-14 -3.35119e-14 0)
(5.3403e-14 -2.0884e-14 0)
(1.54615e-13 -1.26271e-13 0)
(2.14739e-14 -2.0805e-13 0)
(3.97562e-14 -8.9979e-14 0)
(8.92716e-14 -1.58572e-13 0)
(-5.51185e-14 -1.25233e-13 0)
(-1.72636e-13 -1.3781e-13 0)
(-1.32246e-13 -1.34014e-13 0)
(-9.53874e-14 -1.60766e-13 0)
(-1.53098e-13 -1.49304e-13 0)
(-1.62242e-13 -1.34016e-15 0)
(-4.58808e-14 2.85349e-14 0)
(-3.96144e-14 -8.23376e-14 0)
(-6.36346e-14 -4.62439e-14 0)
(2.961e-14 5.05804e-14 0)
(1.61028e-13 5.59675e-14 0)
(1.61698e-13 -2.59185e-14 0)
(5.91529e-14 -8.80127e-14 0)
(7.74817e-14 -8.8284e-14 0)
(1.03558e-14 -7.54606e-14 0)
(-1.7527e-13 -9.01834e-14 0)
(-2.8464e-13 -1.33522e-13 0)
(-1.74343e-13 -6.37536e-14 0)
(-1.15425e-13 -1.15255e-13 0)
(-2.00665e-13 -1.15321e-13 0)
(-2.23596e-13 -1.21578e-13 0)
(-1.32203e-13 -1.5052e-13 0)
(-1.20249e-13 -8.51678e-14 0)
(-1.05877e-13 -7.83175e-14 0)
(-3.99846e-14 -2.35235e-14 0)
(6.988e-16 -7.74589e-14 0)
(4.77919e-14 -2.556e-15 0)
(5.97936e-14 -5.41226e-14 0)
(-1.50099e-14 -7.10734e-14 0)
(1.04892e-14 -5.51086e-15 0)
(1.10456e-14 -4.39364e-14 0)
(-3.46024e-14 -6.17978e-14 0)
(-1.02903e-13 -7.05409e-14 0)
(-7.46019e-14 -2.68657e-14 0)
(1.1951e-13 3.56713e-14 0)
(2.85374e-13 2.92597e-14 0)
(2.17623e-13 -6.14584e-14 0)
(6.26812e-14 -6.9166e-14 0)
(6.16974e-15 -1.05822e-13 0)
(2.26894e-14 -1.29944e-13 0)
(-6.05302e-14 -9.42835e-14 0)
(-1.27136e-13 -1.40738e-13 0)
(-1.60182e-13 -1.02314e-13 0)
(-8.90616e-14 -4.78962e-14 0)
(-5.06453e-14 9.01606e-14 0)
(-4.78745e-14 6.06324e-14 0)
(1.68174e-14 -1.28074e-14 0)
(-5.75486e-14 -1.10234e-13 0)
(-8.48661e-14 -1.22064e-13 0)
(9.59177e-15 -9.33627e-14 0)
(-1.04173e-14 -1.17799e-13 0)
(-8.01587e-14 -1.09088e-13 0)
(-1.01233e-13 -1.31502e-13 0)
(-1.6676e-13 -1.3702e-13 0)
(-4.65877e-14 -1.05695e-13 0)
(1.07993e-13 -1.14444e-13 0)
(8.1215e-14 -6.14265e-14 0)
(1.16298e-13 -4.45032e-14 0)
(1.70199e-13 1.2377e-14 0)
(2.21921e-13 -7.44493e-14 0)
(1.61666e-13 -1.59334e-13 0)
(4.4865e-14 -1.72895e-13 0)
(2.18448e-14 -2.08699e-13 0)
(5.87369e-14 -2.00424e-13 0)
(-9.41682e-15 -1.67242e-13 0)
(-1.31415e-13 -1.41155e-13 0)
(-1.27035e-13 -1.02393e-13 0)
(7.06921e-16 -7.9401e-14 0)
(1.35527e-13 -8.08972e-14 0)
(1.13756e-13 -7.98804e-14 0)
(-3.82338e-14 -8.11058e-14 0)
(-1.0635e-13 -1.20227e-13 0)
(-6.10812e-14 -1.01971e-13 0)
(-1.0689e-13 -1.38357e-13 0)
(-7.4476e-14 -5.68952e-14 0)
(-2.74743e-15 -3.55288e-14 0)
(7.55679e-14 -2.08691e-15 0)
(1.14937e-14 -4.82545e-14 0)
(-1.21363e-13 -1.51736e-13 0)
(-5.57898e-14 -7.88184e-14 0)
(7.50435e-15 -5.91177e-14 0)
(5.1448e-14 -5.04236e-14 0)
(8.68088e-14 -9.35709e-14 0)
(1.39124e-13 -6.18992e-14 0)
(8.13278e-14 -9.46835e-14 0)
(1.54002e-14 -1.80411e-14 0)
(2.98694e-14 -2.45376e-14 0)
(7.46644e-16 -8.47372e-14 0)
(3.0441e-14 -8.99667e-14 0)
(-1.48483e-13 -5.52443e-14 0)
(-2.22388e-13 7.09334e-14 0)
(-1.01099e-13 1.65647e-13 0)
(-4.15399e-14 1.35009e-13 0)
(7.08572e-14 3.41914e-14 0)
(-2.71539e-14 1.38331e-14 0)
(-1.64575e-13 7.89107e-14 0)
(-1.45234e-13 1.07471e-13 0)
(-5.73417e-14 6.19995e-14 0)
(3.47395e-14 3.98135e-14 0)
(1.12928e-13 2.30386e-14 0)
(7.31139e-14 -6.62238e-14 0)
(9.73843e-14 5.93671e-15 0)
(6.05263e-14 -2.11048e-14 0)
(2.04178e-15 3.00531e-14 0)
(4.98931e-14 5.9026e-14 0)
(-8.23145e-14 -2.22341e-15 0)
(-1.98596e-14 -1.21169e-13 0)
(-1.27109e-13 -1.91766e-13 0)
(-2.32644e-13 -2.45649e-13 0)
(-1.7033e-13 -1.10885e-13 0)
(-3.09002e-14 -1.06621e-13 0)
(5.0139e-14 -9.09474e-14 0)
(1.09608e-13 2.7587e-14 0)
(1.39606e-13 -7.6625e-14 0)
(1.29317e-13 -5.88593e-14 0)
(4.56167e-14 -1.17824e-13 0)
(-3.17731e-14 -1.59469e-13 0)
(1.81116e-14 -1.30997e-13 0)
(4.20789e-14 -1.11311e-13 0)
(-4.11665e-14 -1.63401e-14 0)
(1.70521e-14 -5.32856e-14 0)
(1.83863e-13 -1.8171e-13 0)
(1.4489e-13 -2.19792e-13 0)
(3.81885e-14 -1.73765e-13 0)
(2.134e-14 -1.13271e-13 0)
(2.66617e-14 -1.53134e-13 0)
(2.77808e-14 -1.84007e-13 0)
(-1.47799e-14 -2.25655e-13 0)
(-2.1167e-14 -1.92195e-13 0)
(-1.18345e-14 -3.26321e-13 0)
(-3.54205e-14 -3.59681e-13 0)
(-5.6993e-16 -3.529e-13 0)
(-9.16396e-14 -3.1542e-13 0)
(-1.77294e-13 -2.77615e-13 0)
(-1.11316e-13 -3.17098e-13 0)
(-1.38498e-13 -1.34217e-13 0)
(-1.08993e-13 -1.70655e-13 0)
(-7.46219e-14 -3.9241e-14 0)
(1.57913e-14 -5.32397e-14 0)
(1.86768e-13 -1.82569e-13 0)
(1.8544e-13 -2.50452e-13 0)
(2.20442e-13 -1.87522e-13 0)
(2.49497e-13 -1.80152e-13 0)
(1.82605e-13 -9.64111e-14 0)
(7.04472e-14 -1.94169e-13 0)
(1.15167e-13 -2.71344e-13 0)
(1.22365e-13 -2.80951e-13 0)
(-6.10663e-15 -3.46715e-13 0)
(6.48999e-14 -3.41202e-13 0)
(8.42415e-14 -3.78378e-13 0)
(-3.70835e-15 -2.94182e-13 0)
(-5.47448e-14 -2.07886e-13 0)
(-3.91124e-15 -1.85202e-13 0)
(5.49231e-14 -2.11831e-13 0)
(7.11718e-14 -2.65426e-13 0)
(1.34892e-13 -2.18344e-13 0)
(2.04909e-13 -1.98977e-13 0)
(2.19053e-13 -2.72673e-13 0)
(1.52342e-13 -2.52477e-13 0)
(4.19094e-14 -2.63087e-13 0)
(-1.22916e-14 -1.36968e-13 0)
(-6.12069e-14 -1.104e-13 0)
(2.44139e-14 -2.24666e-14 0)
(6.82144e-14 -8.94719e-14 0)
(8.94006e-14 -1.33366e-13 0)
(9.93105e-14 -1.05107e-13 0)
(5.69847e-14 -1.92258e-13 0)
(-4.31783e-14 -2.47542e-13 0)
(-1.98307e-13 -2.20956e-13 0)
(-1.8607e-13 -2.42249e-13 0)
(-1.72606e-13 -2.39806e-13 0)
(-8.00499e-14 -2.24652e-13 0)
(-5.24847e-14 -9.9308e-14 0)
(-1.36103e-13 -7.54162e-14 0)
(-1.4236e-13 -1.5098e-13 0)
(3.0496e-14 -1.65722e-13 0)
(7.7024e-14 -1.13908e-13 0)
(8.05356e-14 -1.33589e-13 0)
(8.0402e-14 -2.24756e-13 0)
(6.2817e-14 -3.14113e-13 0)
(6.88712e-14 -2.68543e-13 0)
(-1.68382e-14 -2.5807e-13 0)
(-2.47043e-13 -2.75737e-13 0)
(-2.67381e-13 -2.1631e-13 0)
(-2.07679e-13 -2.70024e-13 0)
(-1.99646e-13 -3.40727e-13 0)
(-2.19212e-13 -3.02084e-13 0)
(-2.01806e-13 -3.27591e-13 0)
(-1.56791e-13 -2.84957e-13 0)
(-1.29377e-13 -3.05376e-13 0)
(-8.46981e-14 -2.50311e-13 0)
(-6.79917e-14 -2.09888e-13 0)
(-1.50018e-15 -2.35455e-13 0)
(2.74973e-14 -1.76877e-13 0)
(3.61213e-14 -2.67275e-13 0)
(9.88845e-14 -2.13598e-13 0)
(2.82214e-14 -1.93467e-13 0)
(-5.39165e-14 -2.746e-13 0)
(-7.828e-14 -2.00502e-13 0)
(-8.8678e-14 -2.29336e-13 0)
(4.29526e-14 -9.58079e-14 0)
(1.83122e-13 -4.58005e-14 0)
(1.79262e-13 -1.07015e-13 0)
(1.40483e-13 -2.19359e-13 0)
(1.33831e-13 -2.4088e-13 0)
(5.3588e-14 -1.41091e-13 0)
(1.06287e-14 -1.87535e-13 0)
(-1.11985e-13 -2.45447e-13 0)
(-1.32559e-13 -2.61267e-13 0)
(-8.72742e-14 -1.4199e-13 0)
(-4.48207e-14 -4.59526e-14 0)
(-4.85081e-14 -3.78987e-14 0)
(-1.14657e-13 -1.02603e-13 0)
(-1.13809e-13 -2.34124e-13 0)
(-1.40137e-13 -3.76787e-13 0)
(-6.75432e-14 -3.81501e-13 0)
(1.65357e-14 -3.63963e-13 0)
(-1.84623e-14 -3.51136e-13 0)
(-1.32647e-13 -3.95039e-13 0)
(-1.01069e-13 -4.6244e-13 0)
(-4.71102e-14 -3.37264e-13 0)
(-1.42105e-14 -1.60897e-13 0)
(3.87872e-14 -2.59919e-13 0)
(1.14869e-13 -2.3513e-13 0)
(1.80873e-13 -1.75887e-13 0)
(1.82867e-13 -1.73558e-13 0)
(1.37605e-13 -2.58042e-13 0)
(1.11102e-13 -3.47188e-13 0)
(7.17374e-14 -3.09428e-13 0)
(1.17128e-13 -2.84322e-13 0)
(1.61169e-13 -2.24175e-13 0)
(4.90711e-14 -2.07638e-13 0)
(-1.35297e-13 -1.30877e-13 0)
(-1.95274e-13 -1.7039e-13 0)
(-6.48036e-14 -1.53555e-13 0)
(5.31302e-14 -1.99468e-13 0)
(1.52573e-13 -2.51274e-13 0)
(2.64435e-14 -2.77231e-13 0)
(-6.11692e-14 -3.42868e-13 0)
(-1.07396e-13 -3.17426e-13 0)
(-6.90878e-14 -2.71987e-13 0)
(-5.09785e-14 -2.11738e-13 0)
(-5.22187e-14 -1.86853e-13 0)
(9.4836e-15 -2.35673e-13 0)
(-3.66602e-14 -2.95028e-13 0)
(-6.90816e-14 -2.75715e-13 0)
(8.18557e-15 -1.76594e-13 0)
(7.50145e-14 -1.44653e-13 0)
(4.23654e-14 -1.76752e-13 0)
(8.82541e-14 -1.98331e-13 0)
(1.25316e-13 -1.30535e-13 0)
(1.03923e-13 -2.38196e-13 0)
(7.52503e-14 -1.74512e-13 0)
(-8.52221e-16 -2.03579e-13 0)
(-1.76332e-14 -2.10422e-13 0)
(8.17602e-15 -1.46176e-13 0)
(-1.28443e-13 -1.73975e-13 0)
(-1.06721e-13 -2.31338e-14 0)
(-2.40379e-14 2.91233e-14 0)
(-1.17345e-13 5.86711e-14 0)
(-5.25726e-14 -6.20104e-15 0)
(-1.34423e-14 -1.85458e-13 0)
(-8.95247e-14 -1.23549e-13 0)
(-1.57146e-13 -6.66078e-14 0)
(-8.96233e-14 -1.01491e-13 0)
(1.89012e-14 -1.58056e-13 0)
(2.26801e-14 -1.82986e-13 0)
(6.10115e-14 -2.36863e-13 0)
(7.36078e-14 -1.76305e-13 0)
(4.38127e-14 -1.88464e-13 0)
(1.24353e-13 -1.14339e-13 0)
(7.7088e-14 -1.16338e-13 0)
(-1.24464e-13 -1.84948e-13 0)
(-7.30674e-14 -2.91389e-13 0)
(-1.19385e-13 -3.65675e-13 0)
(-1.77273e-13 -2.22635e-13 0)
(-1.27389e-13 -1.01535e-13 0)
(1.1506e-15 -6.30373e-14 0)
(1.30883e-13 -5.89384e-14 0)
(1.67278e-13 -3.07899e-14 0)
(1.37965e-13 -1.12589e-13 0)
(1.25905e-13 -8.97123e-14 0)
(2.06008e-14 -1.29431e-13 0)
(-6.29611e-14 -1.34775e-13 0)
(-3.00637e-14 -2.18004e-13 0)
(5.57961e-14 -1.68862e-13 0)
(-3.42372e-15 -1.79603e-13 0)
(-4.4411e-14 -1.05801e-13 0)
(1.29495e-13 -1.55056e-13 0)
(1.62847e-13 -1.92066e-13 0)
(4.49346e-14 -2.46395e-13 0)
(-6.9187e-15 -2.52919e-13 0)
(-6.98355e-14 -3.08472e-13 0)
(3.21189e-14 -3.59049e-13 0)
(-7.89801e-15 -3.53224e-13 0)
(-9.23243e-14 -4.12256e-13 0)
(-8.07768e-14 -4.77442e-13 0)
(-8.47557e-15 -3.80459e-13 0)
(2.63702e-15 -2.81089e-13 0)
(-3.74099e-14 -3.52567e-13 0)
(-1.29468e-13 -2.54896e-13 0)
(-6.95731e-14 -2.89756e-13 0)
(-1.28691e-13 -2.98324e-13 0)
(-9.1168e-14 -2.65481e-13 0)
(3.29333e-14 -2.21012e-13 0)
(-2.1308e-14 -1.2031e-13 0)
(1.21028e-13 -1.804e-13 0)
(2.44057e-13 -2.17669e-13 0)
(2.25063e-13 -1.59095e-13 0)
(2.32873e-13 -2.2822e-13 0)
(1.64543e-13 -2.16003e-13 0)
(3.20966e-14 -2.76037e-13 0)
(6.77238e-14 -2.67136e-13 0)
(4.95194e-14 -3.32516e-13 0)
(-4.76378e-15 -3.46294e-13 0)
(2.89543e-14 -2.99772e-13 0)
(5.56987e-14 -4.26711e-13 0)
(1.08023e-13 -3.61126e-13 0)
(4.97631e-14 -2.65937e-13 0)
(8.18811e-14 -2.44729e-13 0)
(4.53476e-14 -1.62132e-13 0)
(3.81586e-14 -1.21439e-13 0)
(1.27069e-13 -1.22128e-13 0)
(1.10734e-13 -1.53768e-13 0)
(1.88918e-13 -2.32244e-13 0)
(1.23982e-13 -2.59159e-13 0)
(5.87745e-14 -2.61981e-13 0)
(4.12569e-14 -1.94639e-13 0)
(6.13901e-14 -1.37011e-13 0)
(1.21419e-13 -8.64981e-14 0)
(5.46525e-14 -8.69548e-14 0)
(5.3468e-14 -4.6466e-14 0)
(1.38954e-14 -1.13309e-13 0)
(-4.86706e-15 -1.66911e-13 0)
(-7.55395e-14 -2.43553e-13 0)
(-1.9305e-13 -2.45458e-13 0)
(-1.45405e-13 -2.67325e-13 0)
(-1.17294e-13 -2.13439e-13 0)
(-7.75304e-14 -2.03772e-13 0)
(-9.07159e-14 -2.52058e-13 0)
(-1.03745e-13 -2.282e-13 0)
(-1.38318e-13 -1.42022e-13 0)
(-3.9061e-14 -1.44599e-13 0)
(4.84403e-14 -2.54682e-13 0)
(2.10947e-14 -3.16556e-13 0)
(-1.91549e-14 -3.98894e-13 0)
(5.56446e-14 -3.30464e-13 0)
(1.13606e-13 -2.95131e-13 0)
(2.54926e-14 -3.58354e-13 0)
(-1.41974e-13 -3.4615e-13 0)
(-2.4135e-13 -2.71091e-13 0)
(-2.41182e-13 -3.01606e-13 0)
(-1.63235e-13 -3.38294e-13 0)
(-2.0841e-13 -3.27529e-13 0)
(-2.16792e-13 -2.57077e-13 0)
(-1.68209e-13 -2.65301e-13 0)
(-1.54944e-13 -3.82578e-13 0)
(-4.37072e-14 -3.53122e-13 0)
(-3.34179e-14 -2.51508e-13 0)
(-3.76197e-14 -2.35253e-13 0)
(8.20873e-15 -2.99146e-13 0)
(5.20401e-14 -2.50191e-13 0)
(5.14195e-14 -2.92133e-13 0)
(-5.90993e-14 -3.19927e-13 0)
(-2.30561e-14 -3.27636e-13 0)
(1.51403e-14 -3.43506e-13 0)
(-7.26473e-15 -3.27302e-13 0)
(8.23785e-14 -2.28578e-13 0)
(1.67585e-13 -2.05099e-13 0)
(1.23995e-13 -3.11402e-13 0)
(9.61801e-14 -2.9866e-13 0)
(1.1793e-13 -2.72805e-13 0)
(1.04754e-13 -2.42238e-13 0)
(-1.1943e-14 -2.67908e-13 0)
(-1.05126e-13 -3.11165e-13 0)
(-7.39252e-14 -1.77568e-13 0)
(-8.48483e-15 -1.49197e-13 0)
(-6.96083e-14 -1.27674e-13 0)
(-1.29526e-13 -2.14904e-13 0)
(-2.73065e-13 -1.80574e-13 0)
(-2.61931e-13 -2.65427e-13 0)
(-1.97225e-13 -2.93791e-13 0)
(-9.62037e-14 -2.97091e-13 0)
(4.17974e-14 -2.78039e-13 0)
(5.38065e-15 -2.69297e-13 0)
(-1.0893e-13 -2.68588e-13 0)
(-2.10361e-14 -3.12813e-13 0)
(1.18613e-13 -2.19732e-13 0)
(-1.30943e-14 -1.53276e-13 0)
(-6.48195e-14 -1.10713e-13 0)
(1.25059e-13 -1.36072e-13 0)
(1.45171e-13 -1.1239e-13 0)
(9.17649e-14 -1.49384e-13 0)
(1.13751e-13 -2.0273e-13 0)
(1.70688e-13 -1.96381e-13 0)
(1.36529e-13 -2.16188e-13 0)
(1.42775e-13 -1.69918e-13 0)
(1.6422e-13 -1.89014e-13 0)
(6.42754e-14 -1.80234e-13 0)
(-1.46747e-13 -1.86835e-13 0)
(-2.37888e-13 -1.57033e-13 0)
(-1.52967e-13 -2.51559e-13 0)
(-1.65388e-14 -3.10916e-13 0)
(5.65803e-14 -3.43069e-13 0)
(-6.02856e-14 -3.47276e-13 0)
(-5.84941e-14 -3.38368e-13 0)
(-1.66849e-14 -3.64933e-13 0)
(-1.62654e-14 -3.45103e-13 0)
(-7.01755e-14 -3.54916e-13 0)
(-1.22713e-13 -2.38676e-13 0)
(-1.32308e-13 -2.64423e-13 0)
(-5.3951e-14 -2.56303e-13 0)
(4.19608e-14 -1.83773e-13 0)
(1.20671e-13 -2.17789e-13 0)
(3.65998e-14 -1.95054e-13 0)
(5.4492e-14 -1.83151e-13 0)
(1.26417e-13 -1.5374e-13 0)
(4.70447e-14 -1.84042e-13 0)
(4.11672e-14 -2.10237e-13 0)
(6.09705e-14 -2.58528e-13 0)
(-2.23373e-14 -2.97695e-13 0)
(2.94339e-14 -2.41689e-13 0)
(6.81521e-14 -2.45075e-13 0)
(-4.45029e-14 -1.95837e-13 0)
(-8.76185e-14 -1.11748e-13 0)
(-9.95108e-14 -1.42665e-13 0)
(-1.1356e-14 -1.60527e-13 0)
(-1.20862e-13 -1.09432e-13 0)
(-6.20246e-14 -1.32421e-13 0)
(-3.76173e-14 -1.95698e-13 0)
(-1.10476e-13 -2.1209e-13 0)
(-1.14475e-13 -2.4026e-13 0)
(-4.79284e-14 -3.38998e-13 0)
(1.85528e-14 -3.03855e-13 0)
(8.49567e-14 -2.19908e-13 0)
(1.08735e-13 -2.41518e-13 0)
(6.75313e-14 -2.12773e-13 0)
(9.41589e-14 -2.32755e-13 0)
(5.31006e-14 -2.59786e-13 0)
(-2.04964e-13 -1.49376e-13 0)
(-1.2982e-13 -2.46223e-13 0)
(-6.0855e-14 -2.00161e-13 0)
(-9.22165e-14 -1.69035e-13 0)
(-9.57342e-14 -5.78751e-14 0)
(-4.28633e-15 -2.19529e-14 0)
(1.14912e-13 -7.00006e-14 0)
(1.21772e-13 -1.50418e-13 0)
(1.10855e-13 -1.80272e-13 0)
(9.81396e-14 -2.79681e-13 0)
(1.84852e-14 -3.26427e-13 0)
(-1.3322e-13 -3.7093e-13 0)
(1.27799e-14 -3.55382e-13 0)
(9.73213e-14 -2.85031e-13 0)
(4.24757e-14 -2.38532e-13 0)
(3.1147e-14 -2.01386e-13 0)
(1.18379e-13 -1.64221e-13 0)
(6.85856e-14 -2.2577e-13 0)
(7.52342e-16 -2.887e-13 0)
(-1.78072e-14 -2.76289e-13 0)
(-1.37438e-13 -2.82962e-13 0)
(-5.04664e-14 -3.22446e-13 0)
(-2.70621e-14 -3.70078e-13 0)
(-9.69412e-14 -4.21934e-13 0)
(-3.01721e-14 -4.12973e-13 0)
(8.55017e-14 -4.03981e-13 0)
(4.29381e-14 -4.3968e-13 0)
(1.56278e-14 -3.56357e-13 0)
(-1.06754e-13 -3.32852e-13 0)
(-1.21797e-13 -2.64107e-13 0)
(-6.60201e-14 -2.80457e-13 0)
(-6.06532e-14 -1.70036e-13 0)
(7.99686e-14 -1.83147e-13 0)
(3.49176e-14 -1.05058e-13 0)
(6.93378e-14 -1.24796e-13 0)
(2.10633e-13 -1.38865e-13 0)
(1.95699e-13 -2.59729e-13 0)
(1.38517e-13 -3.05128e-13 0)
(1.33409e-13 -3.43733e-13 0)
(5.09328e-14 -2.86523e-13 0)
(4.62499e-14 -3.11913e-13 0)
(2.85059e-14 -3.51726e-13 0)
(6.69932e-14 -3.59522e-13 0)
(-5.00429e-15 -3.76338e-13 0)
(1.29857e-14 -4.08087e-13 0)
(1.35259e-13 -4.69956e-13 0)
(8.53626e-14 -4.63978e-13 0)
(1.14767e-13 -3.84264e-13 0)
(1.95582e-13 -2.66325e-13 0)
(9.35464e-14 -1.6079e-13 0)
(7.81755e-14 -1.75013e-13 0)
(8.59741e-14 -2.59317e-13 0)
(1.22156e-13 -2.46469e-13 0)
(1.04576e-13 -2.70037e-13 0)
(7.85237e-14 -2.66048e-13 0)
(8.52457e-14 -2.80726e-13 0)
(5.67264e-14 -2.66417e-13 0)
(7.38181e-14 -3.16908e-13 0)
(7.12418e-14 -3.2006e-13 0)
(8.84609e-14 -1.82881e-13 0)
(-2.14734e-16 -1.71616e-13 0)
(-8.85419e-14 -1.48475e-13 0)
(-1.25588e-13 -3.02511e-13 0)
(-2.36887e-13 -3.21149e-13 0)
(-1.86058e-13 -3.743e-13 0)
(-8.48057e-14 -3.69934e-13 0)
(-9.58697e-14 -3.35442e-13 0)
(-8.25919e-14 -3.75988e-13 0)
(-1.21647e-13 -3.32193e-13 0)
(-1.11912e-13 -3.21749e-13 0)
(-4.86097e-14 -3.20507e-13 0)
(-5.61833e-15 -3.71328e-13 0)
(-4.83916e-14 -4.16631e-13 0)
(5.94167e-15 -4.5487e-13 0)
(9.61482e-14 -4.13017e-13 0)
(6.65624e-14 -4.63433e-13 0)
(-6.53825e-15 -5.3514e-13 0)
(-1.14489e-13 -5.12263e-13 0)
(-2.21582e-13 -4.43676e-13 0)
(-2.58457e-13 -4.03149e-13 0)
(-2.0382e-13 -3.55391e-13 0)
(-1.52283e-13 -3.49848e-13 0)
(-1.61827e-13 -2.55965e-13 0)
(-2.69174e-13 -3.25256e-13 0)
(-1.85411e-13 -3.42109e-13 0)
(1.3854e-15 -3.69429e-13 0)
(6.93897e-14 -3.82992e-13 0)
(-4.24891e-14 -3.85091e-13 0)
(-4.4351e-14 -4.24797e-13 0)
(1.51277e-14 -4.00355e-13 0)
(3.44256e-14 -4.77033e-13 0)
(-1.37868e-14 -4.7248e-13 0)
(-5.07421e-14 -4.52985e-13 0)
(-5.49253e-14 -4.72595e-13 0)
(2.97022e-14 -3.82234e-13 0)
(1.21765e-13 -3.52568e-13 0)
(8.59551e-14 -4.24297e-13 0)
(6.40052e-14 -4.67875e-13 0)
(1.46099e-13 -4.16938e-13 0)
(1.63708e-13 -3.28801e-13 0)
(6.66425e-14 -4.15787e-13 0)
(-4.29073e-14 -4.14453e-13 0)
(-1.10663e-14 -3.63697e-13 0)
(1.59236e-14 -2.60221e-13 0)
(-3.63553e-14 -3.13292e-13 0)
(-7.13792e-14 -3.6206e-13 0)
(-1.33825e-13 -2.74522e-13 0)
(-2.3473e-13 -3.11079e-13 0)
(-2.78506e-13 -2.76319e-13 0)
(-1.90836e-13 -2.13307e-13 0)
(-6.50195e-14 -1.55082e-13 0)
(6.96852e-15 -2.44148e-13 0)
(-2.94235e-14 -3.32948e-13 0)
(-8.79092e-14 -3.25443e-13 0)
(-2.9866e-14 -2.19067e-13 0)
(8.52905e-14 -2.91248e-13 0)
(2.8472e-14 -3.18327e-13 0)
(3.12677e-14 -2.67716e-13 0)
(1.13787e-13 -2.30474e-13 0)
(1.41561e-13 -2.26353e-13 0)
(8.15353e-14 -2.20079e-13 0)
(1.18391e-13 -2.51004e-13 0)
(1.00318e-13 -2.50863e-13 0)
(1.21047e-13 -2.86938e-13 0)
(1.51251e-13 -2.42885e-13 0)
(1.20276e-13 -2.9369e-13 0)
(2.79808e-14 -3.63311e-13 0)
(-1.09476e-13 -3.50973e-13 0)
(-2.78253e-13 -2.22089e-13 0)
(-2.26016e-13 -2.79511e-13 0)
(-5.10295e-14 -3.02177e-13 0)
(5.00669e-14 -3.56639e-13 0)
(1.20821e-14 -4.0829e-13 0)
(-1.05035e-13 -3.6699e-13 0)
(-7.4811e-14 -4.09076e-13 0)
(-2.3266e-14 -3.7471e-13 0)
(2.18323e-14 -4.29639e-13 0)
(-2.81072e-14 -4.38536e-13 0)
(-9.08569e-14 -3.50534e-13 0)
(-5.18651e-14 -2.89024e-13 0)
(-1.62226e-14 -3.24596e-13 0)
(7.7623e-14 -3.89187e-13 0)
(7.15158e-14 -4.1368e-13 0)
(8.35514e-14 -3.61811e-13 0)
(1.3498e-13 -3.09574e-13 0)
(7.66212e-14 -3.57844e-13 0)
(2.93506e-14 -3.392e-13 0)
(-3.22861e-14 -4.05827e-13 0)
(2.25526e-14 -3.62128e-13 0)
(8.01941e-14 -2.96098e-13 0)
(5.51799e-14 -3.70365e-13 0)
(1.44774e-14 -3.60401e-13 0)
(-3.57986e-14 -3.69649e-13 0)
(-7.01652e-14 -3.43693e-13 0)
(-2.55993e-14 -3.35754e-13 0)
(-8.56458e-14 -2.685e-13 0)
(-1.11045e-13 -2.63295e-13 0)
(-9.28391e-14 -3.15626e-13 0)
(-1.26939e-13 -3.85295e-13 0)
(-1.94957e-13 -3.56156e-13 0)
(-9.41735e-14 -3.41575e-13 0)
(9.88598e-14 -3.65004e-13 0)
(8.94259e-14 -3.12066e-13 0)
(6.58004e-14 -3.63425e-13 0)
(7.02048e-14 -3.55554e-13 0)
(1.00015e-13 -4.13903e-13 0)
(5.23567e-14 -4.14589e-13 0)
(-2.01093e-13 -2.14359e-13 0)
(-9.90621e-14 -1.75817e-13 0)
(4.1125e-15 -1.13838e-13 0)
(-2.47821e-14 -1.23172e-13 0)
(-5.79106e-14 -9.55123e-14 0)
(-1.44325e-14 -1.13746e-13 0)
(4.71547e-14 -7.6239e-14 0)
(2.92912e-14 -1.30878e-13 0)
(4.89118e-14 -1.65366e-13 0)
(1.10226e-14 -2.44534e-13 0)
(-6.61642e-14 -3.55528e-13 0)
(-1.21755e-13 -3.21409e-13 0)
(2.87828e-15 -2.83328e-13 0)
(1.85994e-13 -3.19073e-13 0)
(7.78885e-14 -2.81834e-13 0)
(2.95084e-14 -3.28341e-13 0)
(1.26491e-13 -3.34917e-13 0)
(1.81884e-14 -3.53191e-13 0)
(-6.45613e-15 -3.48116e-13 0)
(-6.83583e-14 -3.67887e-13 0)
(-1.25363e-13 -3.25521e-13 0)
(-2.26982e-14 -2.7084e-13 0)
(-5.0348e-14 -3.30039e-13 0)
(-1.34058e-13 -3.35013e-13 0)
(-6.64186e-14 -3.55011e-13 0)
(-2.17689e-15 -4.2076e-13 0)
(8.79273e-14 -4.52886e-13 0)
(6.01358e-14 -4.49249e-13 0)
(-5.64542e-14 -4.18347e-13 0)
(-5.1267e-14 -3.43234e-13 0)
(3.76842e-14 -2.74139e-13 0)
(-1.63843e-14 -1.60835e-13 0)
(6.74903e-14 -1.70772e-13 0)
(5.82557e-14 -1.88607e-13 0)
(8.06744e-14 -2.15191e-13 0)
(1.31849e-13 -2.07274e-13 0)
(4.7274e-14 -2.14319e-13 0)
(9.63235e-14 -2.26435e-13 0)
(1.54557e-13 -2.91008e-13 0)
(8.1936e-14 -3.18002e-13 0)
(1.20175e-14 -2.71214e-13 0)
(-1.9187e-15 -3.61011e-13 0)
(-2.60666e-14 -3.95643e-13 0)
(-8.45818e-15 -4.73073e-13 0)
(8.37125e-15 -4.11529e-13 0)
(9.24253e-14 -4.34911e-13 0)
(1.56387e-13 -4.01401e-13 0)
(2.26424e-13 -2.6723e-13 0)
(2.60165e-13 -3.02563e-13 0)
(1.49463e-13 -2.79532e-13 0)
(7.92985e-15 -2.92949e-13 0)
(-2.48258e-15 -2.8454e-13 0)
(1.23205e-13 -3.55787e-13 0)
(7.96891e-14 -4.66848e-13 0)
(3.87223e-14 -5.07681e-13 0)
(5.98607e-14 -5.23971e-13 0)
(5.90238e-14 -4.84263e-13 0)
(5.44913e-14 -4.01957e-13 0)
(2.01944e-13 -3.64983e-13 0)
(1.77722e-13 -2.96747e-13 0)
(-8.18116e-15 -2.59071e-13 0)
(-2.00823e-13 -2.67808e-13 0)
(-2.5995e-13 -3.75591e-13 0)
(-1.98868e-13 -4.53183e-13 0)
(-1.65008e-13 -3.22291e-13 0)
(-6.27305e-14 -3.59827e-13 0)
(-1.12e-13 -3.7524e-13 0)
(-7.2326e-14 -4.09989e-13 0)
(-8.58929e-14 -4.51538e-13 0)
(-1.36982e-13 -4.72325e-13 0)
(-8.66634e-14 -4.52267e-13 0)
(-5.18372e-14 -3.9802e-13 0)
(-5.48046e-14 -4.35785e-13 0)
(1.27478e-14 -4.07364e-13 0)
(5.18268e-14 -4.53668e-13 0)
(-2.53633e-14 -5.359e-13 0)
(-4.9242e-14 -5.8474e-13 0)
(-4.32157e-14 -5.66789e-13 0)
(-1.58456e-13 -5.71866e-13 0)
(-2.02512e-13 -4.88477e-13 0)
(-1.32671e-13 -4.04608e-13 0)
(-1.26538e-13 -3.67918e-13 0)
(-1.9364e-13 -3.64513e-13 0)
(-2.3501e-13 -3.1924e-13 0)
(-1.68852e-13 -2.68854e-13 0)
(-5.07053e-14 -3.43699e-13 0)
(-5.31101e-14 -4.99222e-13 0)
(-9.20453e-14 -5.02305e-13 0)
(1.56917e-15 -5.23303e-13 0)
(-1.95882e-15 -4.76912e-13 0)
(-1.98615e-14 -5.40101e-13 0)
(2.55049e-14 -5.26884e-13 0)
(-1.14791e-14 -5.39689e-13 0)
(6.69158e-14 -5.18182e-13 0)
(1.04393e-13 -4.60042e-13 0)
(-4.44397e-15 -4.61644e-13 0)
(-4.02952e-16 -4.87449e-13 0)
(1.26529e-13 -4.59319e-13 0)
(2.30468e-13 -3.77606e-13 0)
(1.32546e-13 -4.55713e-13 0)
(2.19152e-15 -4.0605e-13 0)
(2.25166e-14 -3.72677e-13 0)
(5.15914e-14 -3.00609e-13 0)
(-1.97098e-14 -3.81759e-13 0)
(-8.0268e-14 -4.3448e-13 0)
(-4.19717e-14 -4.24992e-13 0)
(-8.73868e-14 -4.00808e-13 0)
(-2.3923e-13 -3.39414e-13 0)
(-1.82328e-13 -2.56303e-13 0)
(-1.29049e-13 -2.55166e-13 0)
(-1.3892e-13 -2.75261e-13 0)
(-1.02709e-13 -3.24825e-13 0)
(-7.16584e-14 -3.95696e-13 0)
(2.47987e-14 -3.85468e-13 0)
(4.03563e-14 -3.33781e-13 0)
(3.33547e-14 -4.02167e-13 0)
(7.72048e-15 -4.12198e-13 0)
(1.90991e-14 -3.88249e-13 0)
(1.5495e-13 -3.64156e-13 0)
(1.71611e-13 -3.97271e-13 0)
(5.77163e-14 -3.61172e-13 0)
(6.43107e-14 -3.57045e-13 0)
(1.04249e-13 -3.71606e-13 0)
(1.67385e-13 -3.49852e-13 0)
(1.31125e-13 -3.95853e-13 0)
(4.20809e-14 -4.00471e-13 0)
(-9.76001e-15 -4.61235e-13 0)
(3.24193e-14 -3.66707e-13 0)
(-1.61076e-13 -3.11848e-13 0)
(-2.04506e-13 -1.82083e-13 0)
(-5.4607e-14 -1.58148e-13 0)
(-1.12259e-14 -2.4786e-13 0)
(-7.83648e-14 -3.4473e-13 0)
(-1.09692e-13 -4.27461e-13 0)
(-2.95578e-14 -4.29665e-13 0)
(-1.13061e-14 -3.69015e-13 0)
(-8.84348e-14 -4.21727e-13 0)
(-3.68922e-14 -4.4872e-13 0)
(-2.56565e-15 -4.24199e-13 0)
(-3.17754e-14 -4.33136e-13 0)
(-4.91096e-14 -4.18036e-13 0)
(-3.98099e-15 -4.37461e-13 0)
(2.81879e-14 -4.644e-13 0)
(1.49864e-13 -4.91987e-13 0)
(1.54764e-13 -4.68312e-13 0)
(2.51416e-14 -4.48124e-13 0)
(1.40571e-14 -4.00441e-13 0)
(3.05679e-14 -3.91878e-13 0)
(9.5177e-14 -2.83192e-13 0)
(3.68612e-14 -3.78314e-13 0)
(-2.98599e-14 -4.2029e-13 0)
(-2.15877e-14 -4.25859e-13 0)
(-2.35504e-14 -4.90522e-13 0)
(-4.32378e-14 -5.18845e-13 0)
(1.91477e-15 -5.01877e-13 0)
(-7.13668e-14 -4.66716e-13 0)
(-1.09085e-13 -4.23936e-13 0)
(-1.68591e-13 -4.21882e-13 0)
(-1.3511e-13 -3.63686e-13 0)
(-1.26819e-13 -3.20994e-13 0)
(-5.46717e-14 -2.71885e-13 0)
(8.4202e-14 -3.28975e-13 0)
(6.94631e-14 -2.75279e-13 0)
(3.21892e-14 -3.22575e-13 0)
(6.64427e-14 -3.44419e-13 0)
(6.9964e-14 -4.32563e-13 0)
(1.87869e-14 -4.78673e-13 0)
(-1.35291e-13 -3.50651e-13 0)
(-3.42566e-14 -2.97015e-13 0)
(-9.85606e-15 -2.59168e-13 0)
(-6.93911e-14 -2.27157e-13 0)
(-5.52758e-14 -2.62789e-13 0)
(4.2785e-14 -2.81811e-13 0)
(1.43921e-13 -2.13417e-13 0)
(5.27151e-14 -1.9072e-13 0)
(-5.40613e-14 -2.69809e-13 0)
(-8.2764e-14 -3.26164e-13 0)
(-9.02024e-14 -3.43722e-13 0)
(-5.50995e-14 -3.35673e-13 0)
(1.18499e-14 -2.64398e-13 0)
(9.96346e-14 -3.56816e-13 0)
(4.44408e-14 -4.32153e-13 0)
(-2.57569e-14 -4.13139e-13 0)
(9.62735e-14 -4.57542e-13 0)
(3.8201e-14 -5.38671e-13 0)
(-2.52482e-14 -4.33767e-13 0)
(-1.65632e-14 -4.90377e-13 0)
(-2.32334e-14 -4.47154e-13 0)
(-9.99476e-15 -3.24686e-13 0)
(-8.8227e-14 -2.82571e-13 0)
(-1.28526e-13 -2.59189e-13 0)
(-6.24756e-14 -2.3933e-13 0)
(-7.46188e-15 -2.06606e-13 0)
(1.09776e-14 -2.25431e-13 0)
(2.32813e-14 -3.23058e-13 0)
(-1.7744e-14 -3.25638e-13 0)
(-1.4373e-14 -2.67526e-13 0)
(7.96887e-14 -2.36956e-13 0)
(3.95894e-14 -2.14553e-13 0)
(5.04559e-14 -1.65683e-13 0)
(1.17685e-14 -2.84328e-13 0)
(5.0838e-14 -2.97981e-13 0)
(1.84272e-13 -3.49396e-13 0)
(1.40714e-13 -2.98603e-13 0)
(8.14095e-14 -2.07068e-13 0)
(2.03726e-14 -2.44674e-13 0)
(1.92906e-14 -3.81381e-13 0)
(3.13747e-15 -3.67551e-13 0)
(-3.1871e-14 -4.38194e-13 0)
(-4.37776e-14 -4.73333e-13 0)
(-3.78813e-14 -4.37615e-13 0)
(2.20597e-14 -4.19697e-13 0)
(1.43595e-13 -3.60545e-13 0)
(2.21159e-13 -3.32284e-13 0)
(2.62218e-13 -3.68729e-13 0)
(2.22506e-13 -4.80471e-13 0)
(1.06558e-13 -4.44448e-13 0)
(3.93387e-14 -4.64457e-13 0)
(1.67642e-14 -3.49015e-13 0)
(-1.64423e-14 -3.05223e-13 0)
(-1.84269e-14 -3.80855e-13 0)
(4.58095e-14 -4.20752e-13 0)
(7.84491e-14 -4.05983e-13 0)
(1.52763e-13 -4.6167e-13 0)
(1.46999e-13 -3.9548e-13 0)
(1.82852e-13 -4.03797e-13 0)
(1.44276e-13 -4.78671e-13 0)
(-1.50654e-14 -4.27625e-13 0)
(-1.63817e-13 -4.76622e-13 0)
(-2.68061e-13 -4.18625e-13 0)
(-1.85481e-13 -4.42667e-13 0)
(-9.12558e-14 -3.73773e-13 0)
(-1.0853e-13 -4.03435e-13 0)
(-1.17442e-13 -4.09509e-13 0)
(-1.22593e-13 -4.19518e-13 0)
(-1.57185e-13 -5.04936e-13 0)
(-1.01713e-13 -5.16931e-13 0)
(-1.56873e-14 -4.75145e-13 0)
(-1.52164e-14 -3.80308e-13 0)
(-8.68067e-14 -3.56654e-13 0)
(-8.59603e-15 -3.21672e-13 0)
(1.6947e-14 -3.82204e-13 0)
(7.30133e-15 -3.67929e-13 0)
(-4.56509e-14 -4.11172e-13 0)
(-1.10199e-13 -4.78551e-13 0)
(-1.13892e-13 -4.80489e-13 0)
(-1.45427e-13 -3.64014e-13 0)
(-1.5242e-13 -3.54135e-13 0)
(-9.5742e-14 -3.72901e-13 0)
(-1.188e-13 -3.93874e-13 0)
(-2.21418e-13 -3.27226e-13 0)
(-2.00315e-13 -2.96815e-13 0)
(-1.57671e-13 -3.09927e-13 0)
(-6.88298e-14 -4.0201e-13 0)
(-7.05778e-14 -4.09466e-13 0)
(-1.96633e-14 -4.21006e-13 0)
(-2.39705e-14 -4.6962e-13 0)
(-1.90787e-15 -4.30907e-13 0)
(6.25145e-14 -4.35133e-13 0)
(-1.115e-14 -3.91368e-13 0)
(-8.34618e-15 -3.82426e-13 0)
(5.29162e-14 -4.17259e-13 0)
(8.023e-14 -4.99823e-13 0)
(8.66211e-14 -3.90976e-13 0)
(1.84925e-13 -3.15571e-13 0)
(1.70496e-13 -3.80344e-13 0)
(1.256e-13 -4.23618e-13 0)
(1.10208e-13 -3.36408e-13 0)
(3.67725e-14 -2.72517e-13 0)
(-2.46587e-14 -3.55809e-13 0)
(-5.79102e-14 -3.84014e-13 0)
(-4.78494e-14 -3.96267e-13 0)
(-2.07942e-14 -3.41218e-13 0)
(-8.96841e-14 -3.212e-13 0)
(-1.00473e-13 -2.23864e-13 0)
(-1.56732e-13 -1.44959e-13 0)
(-1.99335e-13 -1.88986e-13 0)
(-1.65654e-13 -2.38566e-13 0)
(-9.566e-14 -2.1045e-13 0)
(-7.69356e-14 -2.49604e-13 0)
(-1.57897e-14 -2.33585e-13 0)
(-3.20313e-14 -3.08446e-13 0)
(1.74798e-14 -3.39307e-13 0)
(5.88893e-14 -3.78975e-13 0)
(7.77256e-14 -3.28681e-13 0)
(9.95648e-14 -3.25986e-13 0)
(1.15739e-13 -3.68502e-13 0)
(1.06873e-13 -4.28473e-13 0)
(1.01116e-13 -3.82424e-13 0)
(7.80635e-14 -3.85029e-13 0)
(8.21334e-14 -3.87462e-13 0)
(1.26612e-13 -4.77356e-13 0)
(6.59622e-14 -4.19748e-13 0)
(3.133e-14 -3.93509e-13 0)
(6.4534e-14 -3.70065e-13 0)
(-5.49894e-14 -2.78452e-13 0)
(-1.03923e-13 -1.64241e-13 0)
(-6.5053e-14 -2.20846e-13 0)
(-1.17098e-13 -2.87653e-13 0)
(-1.58976e-13 -3.3402e-13 0)
(-1.10679e-13 -3.41976e-13 0)
(-1.93605e-14 -3.27861e-13 0)
(-4.83353e-14 -4.27772e-13 0)
(-6.84734e-14 -4.19674e-13 0)
(-1.86717e-14 -3.87218e-13 0)
(-5.95698e-14 -4.07947e-13 0)
(-1.78732e-14 -4.18332e-13 0)
(-6.71861e-15 -3.99735e-13 0)
(2.51282e-14 -4.21651e-13 0)
(2.75824e-14 -3.66518e-13 0)
(9.08838e-14 -3.48408e-13 0)
(1.39572e-13 -3.95838e-13 0)
(1.24385e-13 -3.24411e-13 0)
(5.71047e-14 -2.52982e-13 0)
(4.22916e-14 -2.5879e-13 0)
(1.35145e-14 -2.99934e-13 0)
(-5.62589e-14 -3.92865e-13 0)
(-5.13205e-16 -4.35098e-13 0)
(-5.99774e-14 -4.22613e-13 0)
(-1.05563e-13 -4.90424e-13 0)
(-5.64845e-14 -5.2925e-13 0)
(-3.44641e-14 -5.24119e-13 0)
(4.31879e-15 -5.27318e-13 0)
(-1.04732e-13 -3.98838e-13 0)
(-8.67599e-14 -3.83964e-13 0)
(-6.46978e-14 -3.25075e-13 0)
(-7.79229e-14 -3.41906e-13 0)
(-4.31626e-14 -2.59989e-13 0)
(4.71239e-14 -2.91199e-13 0)
(1.28851e-13 -2.90669e-13 0)
(1.77464e-14 -2.5662e-13 0)
(-9.59139e-15 -3.33564e-13 0)
(1.77461e-14 -3.56213e-13 0)
(8.66577e-14 -4.05044e-13 0)