/*--------------------------------*- C++ -*----------------------------------*\
  =========                 |
  \\      /  F ield         | OpenFOAM: The Open Source CFD Toolbox
   \\    /   O peration     | Website:  https://openfoam.org
    \\  /    A nd           | Version:  13
     \\/     M anipulation  |
\*---------------------------------------------------------------------------*/
FoamFile
{
    format      ascii;
    class       volScalarField;
    location    "0.0021";
    object      CH4;
}
// * * * * * * * * * * * * * * * * * * * * * * * * * * * * * * * * * * * * * //

dimensions      [];

internalField   nonuniform List<scalar> 
33334
(
1.64607e-31
1.65671e-31
1.70279e-31
1.82373e-31
2.07592e-31
2.54224e-31
3.35479e-31
4.74293e-31
7.13571e-31
1.13954e-30
1.93381e-30
3.49194e-30
6.703e-30
1.36167e-29
2.90491e-29
6.44572e-29
1.47248e-28
3.4293e-28
8.07006e-28
1.90432e-27
4.47852e-27
1.04511e-26
2.4138e-26
5.51295e-26
1.24589e-25
2.7898e-25
6.20162e-25
1.37186e-24
3.0247e-24
6.64781e-24
1.45432e-23
3.1577e-23
6.77781e-23
1.43228e-22
2.96875e-22
6.01747e-22
1.18996e-21
2.29174e-21
4.29243e-21
7.80951e-21
1.37861e-20
2.35888e-20
3.90877e-20
6.2683e-20
9.72297e-20
1.45806e-19
2.11274e-19
2.95672e-19
3.99661e-19
5.22545e-19
6.63334e-19
8.2244e-19
1.00156e-18
1.19732e-18
1.38784e-18
1.52958e-18
1.59174e-18
1.59976e-18
1.58239e-18
1.52975e-18
1.43633e-18
1.30875e-18
1.15989e-18
1.00326e-18
8.50206e-19
7.0921e-19
5.85869e-19
4.82896e-19
4.00289e-19
3.35953e-19
2.86668e-19
2.49021e-19
2.20022e-19
1.97346e-19
1.79316e-19
1.64763e-19
1.52874e-19
1.43061e-19
1.34866e-19
1.27914e-19
1.21887e-19
1.16528e-19
1.11612e-19
1.07005e-19
1.02709e-19
9.87647e-20
9.521e-20
9.2039e-20
8.91901e-20
8.6593e-20
8.41949e-20
8.19641e-20
7.98822e-20
7.79339e-20
7.6101e-20
7.43633e-20
7.27024e-20
7.11003e-20
6.95357e-20
6.79806e-20
6.64006e-20
6.47591e-20
6.30241e-20
6.11766e-20
5.92154e-20
5.71494e-20
5.49882e-20
5.27462e-20
5.04371e-20
4.80714e-20
4.5661e-20
4.32228e-20
4.07792e-20
3.8355e-20
3.59716e-20
3.36401e-20
3.1365e-20
2.91458e-20
2.69799e-20
2.48657e-20
2.28056e-20
2.08045e-20
1.88607e-20
1.69485e-20
1.50171e-20
1.30145e-20
1.08482e-20
8.45904e-21
5.95115e-21
3.64589e-21
1.89611e-21
8.25464e-22
2.98323e-22
8.84612e-23
2.10704e-23
3.94493e-24
5.61209e-25
5.87563e-26
4.45344e-27
2.5308e-28
2.81285e-29
1.03247e-28
4.24431e-27
1.00478e-25
1.39499e-24
1.47817e-23
1.57892e-22
1.64194e-21
1.1626e-20
4.77184e-20
1.18068e-19
1.88242e-19
2.10768e-19
1.95267e-19
2.07889e-19
2.74391e-19
4.35737e-19
1.52149e-18
7.69433e-18
5.92887e-17
7.40121e-16
3.35934e-14
1.37568e-12
0
1.18761e-08
0
1.65671e-31
1.66745e-31
1.71389e-31
1.83546e-31
2.08822e-31
2.55429e-31
3.3645e-31
4.74691e-31
7.13072e-31
1.13762e-30
1.92905e-30
3.48116e-30
6.67921e-30
1.35642e-29
2.89316e-29
6.41877e-29
1.46613e-28
3.41398e-28
8.03251e-28
1.89505e-27
4.45569e-27
1.03957e-26
2.40063e-26
5.48116e-26
1.23735e-25
2.76534e-25
6.13546e-25
1.35489e-24
2.98281e-24
6.54739e-24
1.43085e-23
3.10438e-23
6.65929e-23
1.40673e-22
2.91567e-22
5.91137e-22
1.16955e-21
2.25383e-21
4.22438e-21
7.69157e-21
1.35898e-20
2.32739e-20
3.86005e-20
6.19565e-20
9.61876e-20
1.44373e-19
2.094e-19
2.93358e-19
3.96982e-19
5.19634e-19
6.60307e-19
8.19282e-19
9.98135e-19
1.19371e-18
1.38486e-18
1.52867e-18
1.59456e-18
1.60473e-18
1.5884e-18
1.53775e-18
1.44655e-18
1.32065e-18
1.17252e-18
1.0157e-18
8.61725e-19
7.19345e-19
5.94393e-19
4.89783e-19
4.05674e-19
3.40073e-19
2.89787e-19
2.51384e-19
2.21825e-19
1.98737e-19
1.80399e-19
1.65612e-19
1.53541e-19
1.43584e-19
1.35275e-19
1.28234e-19
1.22134e-19
1.16714e-19
1.11735e-19
1.07088e-19
1.02773e-19
9.88265e-20
9.52862e-20
9.21252e-20
8.92796e-20
8.66788e-20
8.42709e-20
8.20286e-20
7.99373e-20
7.79826e-20
7.61451e-20
7.44035e-20
7.27385e-20
7.11321e-20
6.95634e-20
6.80054e-20
6.64244e-20
6.47839e-20
6.30519e-20
6.12084e-20
5.92499e-20
5.71856e-20
5.50255e-20
5.27831e-20
5.04719e-20
4.81033e-20
4.56895e-20
4.32468e-20
4.07963e-20
3.83613e-20
3.59625e-20
3.36155e-20
3.1328e-20
2.91007e-20
2.69318e-20
2.48195e-20
2.27645e-20
2.07705e-20
1.88352e-20
1.69333e-20
1.50134e-20
1.30235e-20
1.08727e-20
8.49941e-21
6.00157e-21
3.69463e-21
1.93238e-21
8.46118e-22
3.07341e-22
9.16226e-23
2.19285e-23
4.12315e-24
5.88577e-25
6.17876e-26
4.691e-27
2.66575e-28
2.90368e-29
1.02489e-28
4.23855e-27
1.01362e-25
1.40522e-24
1.46836e-23
1.511e-22
1.50801e-21
1.04934e-20
4.30745e-20
1.07538e-19
1.74722e-19
2.01072e-19
1.91996e-19
2.08937e-19
2.77074e-19
5.39948e-19
1.1634e-18
8.77243e-18
3.52737e-17
1.05658e-15
2.74422e-14
9.2183e-13
0
1.04079e-08
0
1.70279e-31
1.71389e-31
1.76215e-31
1.8878e-31
2.14722e-31
2.62224e-31
3.44309e-31
4.83857e-31
7.24386e-31
1.1529e-30
1.95148e-30
3.51705e-30
6.74212e-30
1.36846e-29
2.91784e-29
6.47146e-29
1.47755e-28
3.43864e-28
8.08483e-28
1.90585e-27
4.47712e-27
1.04355e-26
2.407e-26
5.48703e-26
1.23608e-25
2.75635e-25
6.10287e-25
1.34523e-24
2.95695e-24
6.48239e-24
1.41488e-23
3.0646e-23
6.56489e-23
1.38566e-22
2.87145e-22
5.82382e-22
1.15314e-21
2.22456e-21
4.17429e-21
7.60831e-21
1.34534e-20
2.30577e-20
3.82706e-20
6.14718e-20
9.5504e-20
1.43453e-19
2.08231e-19
2.91976e-19
3.95491e-19
5.18192e-19
6.59055e-19
8.18242e-19
9.97165e-19
1.19284e-18
1.38541e-18
1.53411e-18
1.60783e-18
1.62257e-18
1.60782e-18
1.5601e-18
1.47203e-18
1.34824e-18
1.20044e-18
1.04218e-18
8.85474e-19
7.39665e-19
6.11087e-19
5.03027e-19
4.15892e-19
3.4781e-19
2.95598e-19
2.55747e-19
2.25118e-19
2.01235e-19
1.823e-19
1.67057e-19
1.54633e-19
1.44398e-19
1.35864e-19
1.28637e-19
1.2238e-19
1.16818e-19
1.11724e-19
1.06999e-19
1.02619e-19
9.86093e-20
9.50194e-20
9.18332e-20
8.89874e-20
8.64131e-20
8.40525e-20
8.18639e-20
7.98174e-20
7.7889e-20
7.60581e-20
7.43083e-20
7.26257e-20
7.09973e-20
6.94069e-20
6.78308e-20
6.62377e-20
6.45915e-20
6.28584e-20
6.10158e-20
5.90565e-20
5.69877e-20
5.48187e-20
5.25631e-20
5.02358e-20
4.78502e-20
4.54192e-20
4.29575e-20
4.04845e-20
3.80222e-20
3.55916e-20
3.32148e-20
3.09052e-20
2.86673e-20
2.65014e-20
2.44052e-20
2.23763e-20
2.04149e-20
1.8515e-20
1.66496e-20
1.47669e-20
1.28139e-20
1.07027e-20
8.37353e-21
5.92081e-21
3.65252e-21
1.91582e-21
8.41817e-22
3.06994e-22
9.19209e-23
2.21001e-23
4.1714e-24
5.97312e-25
6.28539e-26
4.78021e-27
2.71706e-28
2.93273e-29
9.46797e-29
3.87665e-27
9.56905e-26
1.37357e-24
1.45193e-23
1.42651e-22
1.31144e-21
8.65047e-21
3.51055e-20
8.89735e-20
1.50324e-19
1.82837e-19
1.83736e-19
2.05427e-19
2.91876e-19
3.94619e-19
2.66361e-18
1.33656e-18
2.034e-16
7.62139e-17
3.77857e-14
4.17279e-13
0
1.01782e-08
0
1.82373e-31
1.83546e-31
1.8878e-31
2.024e-31
2.30335e-31
2.81105e-31
3.68233e-31
5.15543e-31
7.68383e-31
1.21757e-30
2.05312e-30
3.6885e-30
7.05246e-30
1.42836e-29
3.03963e-29
6.72842e-29
1.53298e-28
3.55937e-28
8.34801e-28
1.96286e-27
4.5988e-27
1.06874e-26
2.4564e-26
5.57699e-26
1.25175e-25
2.78364e-25
6.14834e-25
1.35223e-24
2.96633e-24
6.49134e-24
1.41461e-23
3.05997e-23
6.54893e-23
1.3816e-22
2.86274e-22
5.8075e-22
1.15047e-21
2.22087e-21
4.17045e-21
7.60692e-21
1.34601e-20
2.30838e-20
3.83367e-20
6.16136e-20
9.57812e-20
1.43962e-19
2.09122e-19
2.9347e-19
3.97884e-19
5.21828e-19
6.64261e-19
8.25245e-19
1.00611e-18
1.20431e-18
1.40204e-18
1.56108e-18
1.64644e-18
1.66717e-18
1.65396e-18
1.60852e-18
1.52218e-18
1.39837e-18
1.24821e-18
1.08541e-18
9.22793e-19
7.70592e-19
6.35857e-19
5.22328e-19
4.30634e-19
3.58943e-19
3.0398e-19
2.62075e-19
2.29916e-19
2.04882e-19
1.85066e-19
1.69139e-19
1.56176e-19
1.45512e-19
1.36632e-19
1.29118e-19
1.22623e-19
1.16871e-19
1.11662e-19
1.06863e-19
1.02429e-19
9.83909e-20
9.47777e-20
9.15657e-20
8.87041e-20
8.61336e-20
8.37944e-20
8.16323e-20
7.96045e-20
7.76801e-20
7.58381e-20
7.40647e-20
7.23505e-20
7.06878e-20
6.90654e-20
6.74643e-20
6.58552e-20
6.42014e-20
6.24671e-20
6.06253e-20
5.86644e-20
5.65885e-20
5.44044e-20
5.21258e-20
4.9769e-20
4.73499e-20
4.48823e-20
4.23819e-20
3.987e-20
3.73683e-20
3.49006e-20
3.24916e-20
3.01596e-20
2.79144e-20
2.57592e-20
2.36913e-20
2.1706e-20
1.97985e-20
1.79577e-20
1.61524e-20
1.43289e-20
1.24348e-20
1.03862e-20
8.12616e-21
5.74652e-21
3.54604e-21
1.86123e-21
8.189e-22
2.99274e-22
8.97957e-23
2.16235e-23
4.08596e-24
5.85665e-25
6.16738e-26
4.69161e-27
2.66611e-28
2.88244e-29
8.36279e-29
3.27646e-27
8.45552e-26
1.30699e-24
1.47037e-23
1.44874e-22
1.26467e-21
7.96925e-21
3.17323e-20
8.05661e-20
1.39002e-19
1.74735e-19
1.7982e-19
1.93173e-19
2.30952e-19
6.47151e-19
1.89036e-19
2.68971e-17
6.17348e-17
4.80096e-15
4.33272e-14
3.29771e-13
8.47457e-12
1.26585e-08
0
2.07592e-31
2.08822e-31
2.14722e-31
2.30335e-31
2.62382e-31
3.20416e-31
4.19528e-31
5.86186e-31
8.7056e-31
1.37311e-30
2.30377e-30
4.11785e-30
7.83387e-30
1.57869e-29
3.3426e-29
7.36108e-29
1.66834e-28
3.85319e-28
8.98993e-28
2.10301e-27
4.90208e-27
1.13313e-26
2.58924e-26
5.84255e-26
1.30336e-25
2.88148e-25
6.33004e-25
1.38529e-24
3.02521e-24
6.59396e-24
1.4326e-23
3.09426e-23
6.6181e-23
1.39603e-22
2.89335e-22
5.87254e-22
1.16414e-21
2.24907e-21
4.22728e-21
7.71886e-21
1.36757e-20
2.34822e-20
3.9044e-20
6.28256e-20
9.77935e-20
1.47207e-19
2.14207e-19
3.01207e-19
4.09276e-19
5.37999e-19
6.86329e-19
8.54247e-19
1.04313e-18
1.25108e-18
1.46143e-18
1.63545e-18
1.73362e-18
1.75997e-18
1.74746e-18
1.70182e-18
1.61303e-18
1.48392e-18
1.32564e-18
1.15263e-18
9.7889e-19
8.15819e-19
6.71322e-19
5.4959e-19
4.51358e-19
3.74657e-19
3.15947e-19
2.71261e-19
2.37018e-19
2.10396e-19
1.89343e-19
1.72435e-19
1.58684e-19
1.47376e-19
1.37965e-19
1.30007e-19
1.23148e-19
1.17115e-19
1.11727e-19
1.06848e-19
1.02388e-19
9.83408e-20
9.47133e-20
9.14841e-20
8.86083e-20
8.60285e-20
8.36822e-20
8.1512e-20
7.94735e-20
7.75353e-20
7.56765e-20
7.38837e-20
7.21489e-20
7.04665e-20
6.88274e-20
6.72137e-20
6.55964e-20
6.39387e-20
6.22028e-20
6.03594e-20
5.83936e-20
5.6306e-20
5.41008e-20
5.17902e-20
4.93922e-20
4.69257e-20
4.44079e-20
4.18602e-20
3.93042e-20
3.67579e-20
3.4248e-20
3.18044e-20
2.94492e-20
2.71958e-20
2.50494e-20
2.30077e-20
2.1064e-20
1.92099e-20
1.74294e-20
1.5687e-20
1.39258e-20
1.20923e-20
1.01037e-20
7.90453e-21
5.58627e-21
3.44279e-21
1.8037e-21
7.91812e-22
2.88685e-22
8.64453e-23
2.0785e-23
3.92307e-24
5.61881e-25
5.91357e-26
4.49662e-27
2.55763e-28
2.80205e-29
7.82224e-29
2.82956e-27
7.29309e-26
1.20737e-24
1.50499e-23
1.606e-22
1.43582e-21
8.99355e-21
3.52433e-20
8.76262e-20
1.47654e-19
1.81562e-19
1.82015e-19
1.72458e-19
2.76596e-19
2.07612e-19
3.75224e-18
1.18328e-18
2.92329e-16
2.27623e-15
5.06287e-14
5.57011e-13
8.49085e-12
1.89785e-08
0
2.54224e-31
2.55429e-31
2.62224e-31
2.81105e-31
3.20416e-31
3.91787e-31
5.13431e-31
7.17081e-31
1.06254e-30
1.66906e-30
2.78477e-30
4.94452e-30
9.3364e-30
1.86638e-29
3.91866e-29
8.55637e-29
1.92285e-28
4.40429e-28
1.01939e-27
2.36647e-27
5.47533e-27
1.25634e-26
2.84963e-26
6.38261e-26
1.41318e-25
3.10074e-25
6.76256e-25
1.47014e-24
3.19171e-24
6.92285e-24
1.49844e-23
3.22834e-23
6.8963e-23
1.45441e-22
3.016e-22
6.128e-22
1.21646e-21
2.35374e-21
4.43093e-21
8.10273e-21
1.43749e-20
2.47147e-20
4.11504e-20
6.63217e-20
1.03435e-19
1.56058e-19
2.27697e-19
3.21146e-19
4.37796e-19
5.77419e-19
7.39045e-19
9.22766e-19
1.13027e-18
1.35979e-18
1.59324e-18
1.78752e-18
1.89812e-18
1.92832e-18
1.91478e-18
1.86467e-18
1.76666e-18
1.62375e-18
1.44827e-18
1.25631e-18
1.06361e-18
8.83018e-19
7.23411e-19
5.89387e-19
4.81619e-19
3.97764e-19
3.33771e-19
2.8518e-19
2.48009e-19
2.19139e-19
1.96321e-19
1.77997e-19
1.63091e-19
1.50826e-19
1.40612e-19
1.31983e-19
1.24577e-19
1.18121e-19
1.1243e-19
1.07374e-19
1.02836e-19
9.8746e-20
9.50755e-20
9.17998e-20
8.88803e-20
8.62636e-20
8.38866e-20
8.16894e-20
7.96243e-20
7.76581e-20
7.577e-20
7.39487e-20
7.21888e-20
7.04864e-20
6.88332e-20
6.72103e-20
6.55875e-20
6.39261e-20
6.21864e-20
6.03368e-20
5.83599e-20
5.62544e-20
5.40236e-20
5.16806e-20
4.92461e-20
4.67422e-20
4.41888e-20
4.16001e-20
3.89892e-20
3.63854e-20
3.38267e-20
3.13457e-20
2.89642e-20
2.66981e-20
2.45534e-20
2.25277e-20
2.06133e-20
1.87989e-20
1.70649e-20
1.53722e-20
1.36608e-20
1.18748e-20
9.93049e-21
7.77211e-21
5.49123e-21
3.38061e-21
1.76783e-21
7.74094e-22
2.81339e-22
8.39448e-23
2.01074e-23
3.78161e-24
5.39845e-25
5.66526e-26
4.2987e-27
2.44824e-28
2.74831e-29
7.95995e-29
2.69489e-27
6.70027e-26
1.13903e-24
1.56216e-23
1.88618e-22
1.80763e-21
1.14837e-20
4.45165e-20
1.0652e-19
1.6777e-19
1.94328e-19
1.92108e-19
1.91184e-19
1.93139e-19
8.69294e-19
9.56025e-19
3.39654e-17
2.61059e-16
0
2.65476e-13
1.01492e-13
4.56768e-11
3.09293e-08
0
3.35479e-31
3.3645e-31
3.44309e-31
3.68233e-31
4.19528e-31
5.13431e-31
6.73481e-31
9.40429e-31
1.39063e-30
2.17542e-30
3.6074e-30
6.35482e-30
1.18886e-29
2.35236e-29
4.88622e-29
1.05538e-28
2.3465e-28
5.31937e-28
1.21908e-27
2.80349e-27
6.42842e-27
1.46244e-26
3.29016e-26
7.31161e-26
1.60636e-25
3.49752e-25
7.5714e-25
1.63475e-24
3.52807e-24
7.61577e-24
1.64249e-23
3.52972e-23
7.52929e-23
1.58723e-22
3.29261e-22
6.69595e-22
1.33074e-21
2.57803e-21
4.85883e-21
8.89485e-21
1.57972e-20
2.71945e-20
4.53511e-20
7.32395e-20
1.1451e-19
1.73281e-19
2.53671e-19
3.5906e-19
4.91287e-19
6.50384e-19
8.3559e-19
1.04741e-18
1.28811e-18
1.55522e-18
1.82594e-18
2.048e-18
2.17078e-18
2.20246e-18
2.18552e-18
2.12519e-18
2.0089e-18
1.84075e-18
1.63569e-18
1.41276e-18
1.19024e-18
9.82833e-19
8.00511e-19
6.48267e-19
5.26526e-19
4.32279e-19
3.60662e-19
3.06454e-19
2.65072e-19
2.32972e-19
2.07615e-19
1.87255e-19
1.70684e-19
1.57037e-19
1.45668e-19
1.3608e-19
1.27897e-19
1.20846e-19
1.14722e-19
1.09367e-19
1.04628e-19
1.00388e-19
9.65849e-20
9.31845e-20
9.0154e-20
8.74443e-20
8.49912e-20
8.27287e-20
8.06012e-20
7.85697e-20
7.66133e-20
7.47246e-20
7.29037e-20
7.11513e-20
6.94603e-20
6.78104e-20
6.61673e-20
6.44875e-20
6.27266e-20
6.08474e-20
5.88291e-20
5.66682e-20
5.43688e-20
5.19478e-20
4.94318e-20
4.68477e-20
4.42181e-20
4.15581e-20
3.8885e-20
3.62314e-20
3.36274e-20
3.11004e-20
2.86845e-20
2.63992e-20
2.42486e-20
2.22291e-20
2.03321e-20
1.8544e-20
1.68426e-20
1.51856e-20
1.35101e-20
1.1758e-20
9.84306e-21
7.7086e-21
5.44649e-21
3.35078e-21
1.7499e-21
7.648e-22
2.77285e-22
8.24884e-23
1.9692e-23
3.69072e-24
5.25038e-25
5.49123e-26
4.15493e-27
2.36876e-28
2.73197e-29
8.73834e-29
2.8993e-27
6.97143e-26
1.1745e-24
1.66984e-23
2.14304e-22
2.13693e-21
1.37569e-20
5.31001e-20
1.2432e-19
1.86872e-19
2.05939e-19
2.06e-19
2.07578e-19
3.1634e-19
3.15596e-19
5.00937e-18
1.56387e-17
9.52634e-17
7.06047e-15
6.9154e-15
5.40279e-13
2.94039e-12
5.39712e-08
0
4.74293e-31
4.74691e-31
4.83857e-31
5.15543e-31
5.86186e-31
7.17081e-31
9.40429e-31
1.31149e-30
1.93327e-30
3.00856e-30
4.95287e-30
8.64596e-30
1.60043e-29
3.13017e-29
6.42352e-29
1.37063e-28
3.0113e-28
6.74853e-28
1.52978e-27
3.48166e-27
7.90587e-27
1.78227e-26
3.97605e-26
8.76677e-26
1.91178e-25
4.13292e-25
8.8864e-25
1.90673e-24
4.09263e-24
8.7949e-24
1.89021e-23
4.05176e-23
8.6281e-23
1.81711e-22
3.76808e-22
7.66326e-22
1.52345e-21
2.95277e-21
5.56848e-21
1.02021e-20
1.81384e-20
3.12706e-20
5.22496e-20
8.45869e-20
1.3264e-19
2.01382e-19
2.95848e-19
4.20242e-19
5.76995e-19
7.66495e-19
9.88349e-19
1.2438e-18
1.53588e-18
1.86058e-18
2.18671e-18
2.44699e-18
2.58277e-18
2.61361e-18
2.59058e-18
2.51318e-18
2.36752e-18
2.15997e-18
1.90984e-18
1.6407e-18
1.37433e-18
1.12784e-18
9.12604e-19
7.34056e-19
5.92192e-19
4.83006e-19
4.00438e-19
3.38174e-19
2.90769e-19
2.54063e-19
2.25103e-19
2.01865e-19
1.82958e-19
1.6739e-19
1.54431e-19
1.43533e-19
1.34291e-19
1.26403e-19
1.19632e-19
1.13776e-19
1.08637e-19
1.04072e-19
9.99974e-20
9.63683e-20
9.31466e-20
9.02805e-20
8.77007e-20
8.53319e-20
8.3107e-20
8.09783e-20
7.89213e-20
7.6931e-20
7.5013e-20
7.31723e-20
7.14032e-20
6.96825e-20
6.79713e-20
6.62202e-20
6.43781e-20
6.2402e-20
6.02673e-20
5.79677e-20
5.55075e-20
5.29089e-20
5.02065e-20
4.74354e-20
4.46249e-20
4.18052e-20
3.90084e-20
3.62602e-20
3.35838e-20
3.1004e-20
2.85483e-20
2.6235e-20
2.40692e-20
2.20469e-20
2.01579e-20
1.83866e-20
1.67082e-20
1.50775e-20
1.34289e-20
1.17017e-20
9.80713e-21
7.68647e-21
5.43159e-21
3.33938e-21
1.74145e-21
7.5954e-22
2.74664e-22
8.146e-23
1.93859e-23
3.62213e-24
5.13674e-25
5.35568e-26
4.0412e-27
2.30636e-28
2.73538e-29
1.00966e-28
3.49033e-27
8.26542e-26
1.35119e-24
1.85709e-23
2.33495e-22
2.32564e-21
1.49122e-20
5.69242e-20
1.32473e-19
2.0069e-19
2.23369e-19
2.21321e-19
2.48851e-19
3.17558e-19
1.08137e-18
3.24763e-18
1.32055e-17
5.6562e-16
0
9.46707e-14
1.06573e-13
4.56861e-11
9.54398e-08
0
7.13571e-31
7.13072e-31
7.24386e-31
7.68383e-31
8.7056e-31
1.06254e-30
1.39063e-30
1.93327e-30
2.83573e-30
4.38226e-30
7.15018e-30
1.23494e-29
2.25868e-29
4.36094e-29
8.83102e-29
1.85954e-28
4.03311e-28
8.92764e-28
2.00021e-27
4.5025e-27
1.01196e-26
2.25989e-26
4.99828e-26
1.09341e-25
2.36713e-25
5.08274e-25
1.08595e-24
2.31647e-24
4.94588e-24
1.05798e-23
2.26513e-23
4.84048e-23
1.0283e-22
2.1618e-22
4.47732e-22
9.09868e-22
1.80818e-21
3.50479e-21
6.61249e-21
1.21255e-20
2.15871e-20
3.72837e-20
6.24399e-20
1.01361e-19
1.59436e-19
2.42866e-19
3.5797e-19
5.10084e-19
7.02414e-19
9.35817e-19
1.21043e-18
1.52847e-18
1.89389e-18
2.30013e-18
2.70377e-18
3.01584e-18
3.16701e-18
3.195e-18
3.16297e-18
3.06056e-18
2.87229e-18
2.60837e-18
2.29461e-18
1.96071e-18
1.63308e-18
1.33201e-18
1.07081e-18
8.55467e-19
6.85403e-19
5.55238e-19
4.57275e-19
3.83687e-19
3.27836e-19
2.84698e-19
2.50733e-19
2.23528e-19
2.01425e-19
1.83258e-19
1.6817e-19
1.55525e-19
1.44849e-19
1.35781e-19
1.28034e-19
1.21359e-19
1.15525e-19
1.10377e-19
1.05824e-19
1.01806e-19
9.82696e-20
9.51486e-20
9.23606e-20
8.98169e-20
8.74369e-20
8.51617e-20
8.29591e-20
8.08208e-20
7.87526e-20
7.67613e-20
7.4841e-20
7.29668e-20
7.10957e-20
6.91734e-20
6.71442e-20
6.49628e-20
6.26051e-20
6.00661e-20
5.73534e-20
5.4495e-20
5.15324e-20
4.85076e-20
4.54572e-20
4.24158e-20
3.94209e-20
3.65054e-20
3.36998e-20
3.10286e-20
2.85066e-20
2.61494e-20
2.39581e-20
2.19255e-20
2.00382e-20
1.82777e-20
1.66163e-20
1.50062e-20
1.33792e-20
1.16718e-20
9.79261e-21
7.68005e-21
5.42639e-21
3.33263e-21
1.73453e-21
7.54508e-22
2.71967e-22
8.03676e-23
1.90593e-23
3.54929e-24
5.01681e-25
5.21378e-26
3.92308e-27
2.24261e-28
2.74985e-29
1.15789e-28
4.21814e-27
1.00353e-25
1.6022e-24
2.10324e-23
2.55359e-22
2.51572e-21
1.59694e-20
5.99246e-20
1.38476e-19
2.15756e-19
2.54862e-19
2.61982e-19
2.83646e-19
5.1267e-19
6.54782e-19
7.00972e-18
4.68828e-17
0
2.37234e-14
3.70635e-14
1.46492e-12
5.88812e-11
6.3908e-09
0
1.13954e-30
1.13762e-30
1.1529e-30
1.21757e-30
1.37311e-30
1.66906e-30
2.17542e-30
3.00856e-30
4.38226e-30
6.71164e-30
1.08319e-29
1.84741e-29
3.3323e-29
6.34017e-29
1.26488e-28
2.62447e-28
5.61163e-28
1.22547e-27
2.71087e-27
6.03017e-27
1.34052e-26
2.96365e-26
6.49498e-26
1.409e-25
3.0271e-25
6.45396e-25
1.36983e-24
2.90398e-24
6.16481e-24
1.31188e-23
2.79582e-23
5.95111e-23
1.26016e-22
2.64249e-22
5.46261e-22
1.10873e-21
2.20205e-21
4.26824e-21
8.05765e-21
1.47924e-20
2.63782e-20
4.56543e-20
7.66488e-20
1.24776e-19
1.96855e-19
3.00775e-19
4.44612e-19
6.35211e-19
8.76798e-19
1.17081e-18
1.51803e-18
1.92184e-18
2.38702e-18
2.90325e-18
3.41071e-18
3.79157e-18
3.9622e-18
3.98565e-18
3.94133e-18
3.80425e-18
3.55726e-18
3.2167e-18
2.81717e-18
2.39611e-18
1.98585e-18
1.61099e-18
1.28746e-18
1.0221e-18
8.13569e-19
6.54692e-19
5.35613e-19
4.46492e-19
3.79077e-19
3.27168e-19
2.86415e-19
2.53859e-19
2.27481e-19
2.05859e-19
1.87959e-19
1.73001e-19
1.60398e-19
1.49697e-19
1.40543e-19
1.32642e-19
1.25744e-19
1.19689e-19
1.1438e-19
1.09741e-19
1.05696e-19
1.02153e-19
9.9011e-20
9.61632e-20
9.35146e-20
9.09928e-20
8.85541e-20
8.61809e-20
8.38737e-20
8.16361e-20
7.94608e-20
7.73212e-20
7.51721e-20
7.29569e-20
7.06187e-20
6.81136e-20
6.54221e-20
6.25445e-20
5.94949e-20
5.63082e-20
5.30321e-20
4.9714e-20
4.63972e-20
4.31225e-20
3.99273e-20
3.68336e-20
3.38682e-20
3.10761e-20
2.8476e-20
2.60696e-20
2.38499e-20
2.18049e-20
1.99174e-20
1.81655e-20
1.65186e-20
1.49261e-20
1.33178e-20
1.16278e-20
9.76211e-21
7.65699e-21
5.40617e-21
3.31481e-21
1.7211e-21
7.46395e-22
2.68079e-22
7.88972e-23
1.86383e-23
3.45812e-24
4.86981e-25
5.04279e-26
3.78284e-27
2.16793e-28
2.77366e-29
1.3119e-28
4.81645e-27
1.13297e-25
1.79755e-24
2.37242e-23
2.92435e-22
2.89623e-21
1.81582e-20
6.69196e-20
1.52896e-19
2.41072e-19
2.98174e-19
3.28393e-19
3.81388e-19
5.82044e-19
2.27087e-18
3.64818e-18
8.12104e-17
9.54152e-16
0
8.75988e-13
0
2.06085e-10
4.2873e-09
0
1.93381e-30
1.92905e-30
1.95148e-30
2.05312e-30
2.30377e-30
2.78477e-30
3.6074e-30
4.95287e-30
7.15018e-30
1.08319e-29
1.72566e-29
2.90002e-29
5.14713e-29
9.62838e-29
1.88816e-28
3.85203e-28
8.10365e-28
1.74272e-27
3.80019e-27
8.34176e-27
1.83187e-26
4.0049e-26
8.68771e-26
1.86713e-25
3.97689e-25
8.41114e-25
1.77181e-24
3.72951e-24
7.86457e-24
1.66328e-23
3.5251e-23
7.46733e-23
1.57489e-22
3.29208e-22
6.78984e-22
1.37611e-21
2.73128e-21
5.29449e-21
1.00025e-20
1.8387e-20
3.28473e-20
5.6975e-20
9.58912e-20
1.56514e-19
2.47599e-19
3.79311e-19
5.62075e-19
8.0474e-19
1.11283e-18
1.48848e-18
1.93315e-18
2.45152e-18
3.04892e-18
3.70943e-18
4.35211e-18
4.82271e-18
5.01882e-18
5.03621e-18
4.97525e-18
4.79085e-18
4.46505e-18
4.02319e-18
3.5109e-18
2.97511e-18
2.45574e-18
1.98318e-18
1.57694e-18
1.24502e-18
9.85136e-19
7.87803e-19
6.4038e-19
5.30403e-19
4.47488e-19
3.83861e-19
3.34078e-19
2.94439e-19
2.62425e-19
2.36269e-19
2.14678e-19
1.96678e-19
1.81518e-19
1.68623e-19
1.57552e-19
1.47968e-19
1.39595e-19
1.32266e-19
1.25875e-19
1.20324e-19
1.15508e-19
1.11306e-19
1.07593e-19
1.04244e-19
1.01147e-19
9.82151e-20
9.53917e-20
9.26472e-20
8.99727e-20
8.73656e-20
8.48148e-20
8.22918e-20
7.97494e-20
7.71304e-20
7.43785e-20
7.14528e-20
6.83412e-20
6.50501e-20
6.16005e-20
5.80352e-20
5.44073e-20
5.07695e-20
4.71711e-20
4.36563e-20
4.02433e-20
3.69726e-20
3.38849e-20
3.10081e-20
2.83518e-20
2.5908e-20
2.36677e-20
2.16158e-20
1.97318e-20
1.79906e-20
1.63588e-20
1.47837e-20
1.31941e-20
1.15227e-20
9.67448e-21
7.58491e-21
5.34902e-21
3.27349e-21
1.69534e-21
7.32995e-22
2.62332e-22
7.68908e-23
1.8092e-23
3.34357e-24
4.68932e-25
4.83657e-26
3.61616e-27
2.08009e-28
2.80656e-29
1.51436e-28
5.47198e-27
1.25154e-25
1.97182e-24
2.66331e-23
3.40769e-22
3.4298e-21
2.1372e-20
7.80086e-20
1.77096e-19
2.76911e-19
3.41646e-19
3.88967e-19
4.81629e-19
8.45519e-19
1.65557e-18
1.59432e-17
1.22884e-18
1.78707e-15
6.50217e-15
1.03117e-13
1.28597e-13
1.35216e-10
4.26884e-09
0
3.49194e-30
3.48116e-30
3.51705e-30
3.6885e-30
4.11785e-30
4.94452e-30
6.35482e-30
8.64596e-30
1.23494e-29
1.84741e-29
2.90002e-29
4.79214e-29
8.34941e-29
1.53168e-28
2.94469e-28
5.89125e-28
1.21632e-27
2.56987e-27
5.51222e-27
1.19169e-26
2.58065e-26
5.57012e-26
1.19421e-25
2.53898e-25
5.35396e-25
1.12179e-24
2.34222e-24
4.88902e-24
1.02287e-23
2.14758e-23
4.52178e-23
9.52438e-23
1.9993e-22
4.16389e-22
8.56517e-22
1.73302e-21
3.43708e-21
6.66298e-21
1.25972e-20
2.31869e-20
4.1494e-20
7.21201e-20
1.21653e-19
1.99025e-19
3.15582e-19
4.84524e-19
7.19396e-19
1.03167e-18
1.42851e-18
1.91277e-18
2.48666e-18
3.15623e-18
3.92688e-18
4.77429e-18
5.59028e-18
6.17621e-18
6.40622e-18
6.41602e-18
6.3316e-18
6.08255e-18
5.65246e-18
5.07854e-18
4.41953e-18
3.73409e-18
3.07217e-18
2.47183e-18
1.95726e-18
1.53799e-18
1.21051e-18
9.62434e-19
7.77547e-19
6.4e-19
5.36624e-19
4.5757e-19
3.95937e-19
3.47036e-19
3.07672e-19
2.75609e-19
2.49209e-19
2.27234e-19
2.08728e-19
1.92963e-19
1.79395e-19
1.67622e-19
1.57328e-19
1.48326e-19
1.4049e-19
1.33693e-19
1.27795e-19
1.22644e-19
1.1809e-19
1.13988e-19
1.1021e-19
1.06656e-19
1.03255e-19
9.99654e-20
9.67685e-20
9.36534e-20
9.06031e-20
8.7585e-20
8.45492e-20
8.14364e-20
7.81903e-20
7.47733e-20
7.11814e-20
6.74257e-20
6.35346e-20
5.9558e-20
5.55545e-20
5.15816e-20
4.76918e-20
4.39198e-20
4.0298e-20
3.68804e-20
3.37022e-20
3.07593e-20
2.8056e-20
2.55874e-20
2.33393e-20
2.12918e-20
1.94205e-20
1.76976e-20
1.60871e-20
1.45352e-20
1.29711e-20
1.13271e-20
9.50832e-21
7.4499e-21
5.24713e-21
3.20503e-21
1.6559e-21
7.13936e-22
2.54672e-22
7.43586e-23
1.7428e-23
3.20775e-24
4.4792e-25
4.59971e-26
3.42647e-27
1.9802e-28
2.83932e-29
1.80037e-28
6.62434e-27
1.49354e-25
2.30075e-24
3.02933e-23
3.80064e-22
3.80237e-21
2.37862e-20
8.71096e-20
1.97654e-19
3.0754e-19
3.76623e-19
4.27585e-19
4.95601e-19
9.59536e-19
3.05361e-18
0
2.25672e-16
0
6.08468e-14
5.38223e-14
4.772e-12
2.32246e-10
4.35793e-09
1.57249e-06
6.703e-30
6.67921e-30
6.74212e-30
7.05246e-30
7.83387e-30
9.3364e-30
1.18886e-29
1.60043e-29
2.25868e-29
3.3323e-29
5.14713e-29
8.34941e-29
1.42518e-28
2.5579e-28
4.80856e-28
9.4084e-28
1.90118e-27
3.936e-27
8.28381e-27
1.75976e-26
3.74991e-26
7.97524e-26
1.68685e-25
3.5418e-25
7.38226e-25
1.52998e-24
3.16171e-24
6.53552e-24
1.35489e-23
2.82078e-23
5.89446e-23
1.23347e-22
2.57524e-22
5.34061e-22
1.09517e-21
2.21143e-21
4.38137e-21
8.49197e-21
1.60634e-20
2.95981e-20
5.30443e-20
9.23534e-20
1.56072e-19
2.55822e-19
4.06396e-19
6.25028e-19
9.29386e-19
1.33436e-18
1.84912e-18
2.47729e-18
3.22175e-18
4.09004e-18
5.08698e-18
6.17591e-18
7.21249e-18
7.94464e-18
8.22032e-18
8.22093e-18
8.10136e-18
7.76412e-18
7.19733e-18
6.45179e-18
5.60197e-18
4.72174e-18
3.87431e-18
3.10774e-18
2.45221e-18
1.9191e-18
1.50336e-18
1.18889e-18
9.54935e-19
7.81276e-19
6.51133e-19
5.51942e-19
4.74883e-19
4.13953e-19
3.65063e-19
3.25347e-19
2.92716e-19
2.6559e-19
2.42758e-19
2.23301e-19
2.06543e-19
1.91995e-19
1.7927e-19
1.68143e-19
1.58454e-19
1.50034e-19
1.42705e-19
1.3628e-19
1.30582e-19
1.25444e-19
1.20725e-19
1.16309e-19
1.12113e-19
1.08085e-19
1.04197e-19
1.00427e-19
9.67525e-20
9.31323e-20
8.95108e-20
8.58243e-20
8.20145e-20
7.80472e-20
7.39258e-20
6.96643e-20
6.52986e-20
6.08855e-20
5.64889e-20
5.21698e-20
4.79808e-20
4.39538e-20
4.01535e-20
3.66037e-20
3.33171e-20
3.03044e-20
2.7563e-20
2.50804e-20
2.28355e-20
2.08034e-20
1.8956e-20
1.7262e-20
1.56837e-20
1.41663e-20
1.26404e-20
1.10382e-20
9.26489e-21
7.25569e-21
5.10481e-21
3.11275e-21
1.60466e-21
6.90028e-22
2.45386e-22
7.13869e-23
1.66682e-23
3.05524e-24
4.24691e-25
4.34091e-26
3.22092e-27
1.87192e-28
2.86323e-29
2.13476e-28
8.39251e-27
1.94067e-25
2.93145e-24
3.58901e-23
4.1177e-22
3.94322e-21
2.46472e-20
9.132e-20
2.08985e-19
3.25467e-19
3.97285e-19
4.48009e-19
5.73844e-19
7.8929e-19
3.29579e-18
1.85862e-17
0
5.22262e-15
0
4.28537e-12
0
1.46653e-09
3.3946e-09
1.59549e-05
1.36167e-29
1.35642e-29
1.36846e-29
1.42836e-29
1.57869e-29
1.86638e-29
2.35236e-29
3.13017e-29
4.36094e-29
6.34017e-29
9.62838e-29
1.53168e-28
2.5579e-28
4.48377e-28
8.2246e-28
1.57005e-27
3.09733e-27
6.2672e-27
1.29098e-26
2.68838e-26
5.62467e-26
1.17629e-25
2.44982e-25
5.07092e-25
1.043e-24
2.13484e-24
4.36002e-24
8.91292e-24
1.82862e-23
3.77074e-23
7.81215e-23
1.62263e-22
3.36672e-22
6.94755e-22
1.41941e-21
2.85885e-21
5.65541e-21
1.09542e-20
2.07221e-20
3.82053e-20
6.85376e-20
1.19476e-19
2.02184e-19
3.31869e-19
5.27914e-19
8.12904e-19
1.20994e-18
1.73835e-18
2.40979e-18
3.22854e-18
4.198e-18
5.32731e-18
6.61993e-18
8.02165e-18
9.33938e-18
1.02544e-17
1.05915e-17
1.05811e-17
1.0407e-17
9.95174e-18
9.20612e-18
8.23654e-18
7.13775e-18
6.00374e-18
4.91502e-18
3.93249e-18
3.09386e-18
2.41276e-18
1.88214e-18
1.48114e-18
1.18317e-18
9.62415e-19
7.97398e-19
6.72017e-19
5.74941e-19
4.98436e-19
4.37229e-19
3.87629e-19
3.46954e-19
3.13186e-19
2.8479e-19
2.60611e-19
2.39802e-19
2.21746e-19
2.05958e-19
1.92157e-19
1.80126e-19
1.69647e-19
1.60493e-19
1.52436e-19
1.45265e-19
1.38792e-19
1.32854e-19
1.27323e-19
1.22104e-19
1.17134e-19
1.12377e-19
1.078e-19
1.0337e-19
9.90358e-20
9.47314e-20
9.03852e-20
8.59363e-20
8.13552e-20
7.66494e-20
7.18357e-20
6.6958e-20
6.20802e-20
5.72706e-20
5.25919e-20
4.80968e-20
4.38339e-20
3.98454e-20
3.61505e-20
3.27614e-20
2.9683e-20
2.69076e-20
2.44156e-20
2.21797e-20
2.017e-20
1.83541e-20
1.6698e-20
1.51617e-20
1.36899e-20
1.22142e-20
1.06671e-20
8.95383e-21
7.01009e-21
4.92774e-21
3.00025e-21
1.54344e-21
6.62012e-22
2.3471e-22
6.80373e-23
1.58266e-23
2.8889e-24
3.99707e-25
4.06573e-26
3.004e-27
1.75789e-28
2.88616e-29
2.45044e-28
1.02813e-26
2.49332e-25
3.82037e-24
4.45992e-23
4.6331e-22
4.10227e-21
2.49717e-20
9.28387e-20
2.15932e-19
3.43599e-19
4.27981e-19
4.89636e-19
6.07444e-19
1.34332e-18
2.5944e-18
1.60058e-17
2.6496e-16
0
1.14006e-13
0
2.13141e-11
4.59649e-10
4.49305e-09
3.43043e-05
2.90491e-29
2.89316e-29
2.91784e-29
3.03963e-29
3.3426e-29
3.91866e-29
4.88622e-29
6.42352e-29
8.83102e-29
1.26488e-28
1.88816e-28
2.94469e-28
4.80856e-28
8.2246e-28
1.47008e-27
2.73332e-27
5.2537e-27
1.03673e-26
2.08554e-26
4.24809e-26
8.70826e-26
1.78728e-25
3.65855e-25
7.45296e-25
1.51034e-24
3.04863e-24
6.14496e-24
1.24069e-23
2.51607e-23
5.13307e-23
1.05326e-22
2.16936e-22
4.46923e-22
9.16958e-22
1.865e-21
3.74399e-21
7.38998e-21
1.42952e-20
2.7027e-20
4.98297e-20
8.94273e-20
1.55996e-19
2.642e-19
4.34032e-19
6.90985e-19
1.06474e-18
1.58556e-18
2.2785e-18
3.15825e-18
4.22956e-18
5.49602e-18
6.96836e-18
8.64767e-18
1.04555e-17
1.21336e-17
1.32785e-17
1.36916e-17
1.36653e-17
1.34154e-17
1.28027e-17
1.18214e-17
1.05579e-17
9.13343e-18
7.66823e-18
6.26534e-18
5.00202e-18
3.92543e-18
3.05195e-18
2.37185e-18
1.85816e-18
1.4768e-18
1.19467e-18
9.84255e-19
8.24827e-19
7.01772e-19
6.05092e-19
5.27955e-19
4.65585e-19
4.14527e-19
3.72198e-19
3.36649e-19
3.06418e-19
2.8044e-19
2.57914e-19
2.38242e-19
2.2106e-19
2.06076e-19
1.93008e-19
1.81565e-19
1.71468e-19
1.6246e-19
1.54322e-19
1.46869e-19
1.39955e-19
1.33474e-19
1.27353e-19
1.21542e-19
1.15997e-19
1.10671e-19
1.05497e-19
1.00396e-19
9.52874e-20
9.01069e-20
8.48329e-20
7.94705e-20
7.40432e-20
6.86038e-20
6.32227e-20
5.79723e-20
5.29164e-20
4.8108e-20
4.35994e-20
3.94144e-20
3.55733e-20
3.20848e-20
2.8945e-20
2.61387e-20
2.36399e-20
2.14155e-20
1.9431e-20
1.76501e-20
1.60363e-20
1.45475e-20
1.31282e-20
1.17108e-20
1.02279e-20
8.58571e-21
6.72028e-21
4.72024e-21
2.86973e-21
1.47324e-21
6.3026e-22
2.22764e-22
6.43406e-23
1.49102e-23
2.71012e-24
3.73195e-25
3.77684e-26
2.77799e-27
1.63994e-28
2.92321e-29
2.75914e-28
1.20295e-26
3.05106e-25
4.85359e-24
5.65227e-23
5.49942e-22
4.46367e-21
2.58561e-20
9.50073e-20
2.22353e-19
3.61382e-19
4.658e-19
5.49262e-19
7.86502e-19
1.04542e-18
6.70392e-18
2.27908e-17
3.36447e-19
6.06712e-15
0
8.00283e-12
0
3.94016e-09
0
7.81766e-05
6.44572e-29