/*--------------------------------*- C++ -*----------------------------------*\
  =========                 |
  \\      /  F ield         | OpenFOAM: The Open Source CFD Toolbox
   \\    /   O peration     | Website:  https://openfoam.org
    \\  /    A nd           | Version:  13
     \\/     M anipulation  |
\*---------------------------------------------------------------------------*/
FoamFile
{
    format      ascii;
    class       volScalarField;
    location    "0.0021";
    object      p;
}
// * * * * * * * * * * * * * * * * * * * * * * * * * * * * * * * * * * * * * //

dimensions      [1 -1 -2 0 0 0 0];

internalField   nonuniform List<scalar> 
33334
(
205290
205503
205868
206356
207003
207765
208622
209551
210533
211553
212596
213647
214694
215730
216747
217742
218716
219665
220591
221492
222370
223223
224052
224854
225626
226368
227076
227753
228395
229004
229582
230138
230682
231222
231769
232333
232928
233563
234249
234993
235802
236679
237629
238652
239751
240924
242171
243493
244885
246346
247870
249453
251088
252772
254502
256275
258092
259953
261859
263810
265805
267843
269921
272035
274179
276351
278549
280773
283024
285301
287602
289921
292251
294585
296916
299232
301521
303774
305993
308161
310272
312250
314084
315743
317224
318580
319846
320965
322005
322967
323860
324720
325583
326468
327380
328327
329322
330380
331517
332757
334117
335609
337247
339074
341140
343346
345752
348413
351365
354628
358208
362102
366305
370812
375623
380741
386175
391952
398118
404737
411904
419793
428845
439940
453768
470968
494240
524756
561087
599450
636020
668821
697725
723844
747642
768955
789611
810009
830463
850585
870255
889948
909691
930128
950351
971740
995386
1.02066e+06
1.04733e+06
1.0761e+06
1.10712e+06
1.14032e+06
1.17638e+06
1.21592e+06
1.26046e+06
1.31216e+06
1.37291e+06
1.44418e+06
1.52895e+06
1.63051e+06
1.74823e+06
1.88234e+06
2.03452e+06
2.20516e+06
2.39267e+06
2.60017e+06
205503
205703
206079
206581
207221
207970
208806
209713
210670
211666
212688
213724
214764
215799
216819
217821
218801
219755
220684
221588
222467
223321
224149
224948
225718
226456
227160
227832
228468
229070
229643
230193
230730
231262
231802
232361
232950
233578
234257
234995
235797
236668
237610
238625
239713
240875
242112
243421
244802
246251
247764
249335
250961
252636
254357
256123
257932
259786
261686
263630
265621
267655
269730
271841
273983
276154
278352
280576
282828
285106
287409
289731
292066
294406
296743
299067
301367
303637
305874
308035
310154
312137
313838
315485
316889
318120
319177
320214
321231
322244
323265
324285
325295
326276
327237
328203
329201
330254
331383
332612
333958
335437
337063
338872
340909
343117
345493
348120
351046
354286
357840
361711
365890
370376
375174
380276
385692
391456
397606
404204
411352
419215
428206
439195
453017
470000
493017
523209
559137
596989
632928
665081
693528
719179
743497
765072
786057
806785
827642
847835
867552
887195
907138
927783
949309
971936
994714
1.01894e+06
1.04533e+06
1.07422e+06
1.10534e+06
1.13892e+06
1.17546e+06
1.2153e+06
1.25988e+06
1.31137e+06
1.37186e+06
1.44325e+06
1.52805e+06
1.62944e+06
1.74757e+06
1.88194e+06
2.035e+06
2.20691e+06
2.39589e+06
2.60174e+06
205868
206079
206417
206896
207513
208251
209085
209994
210958
211959
212983
214019
215054
216083
217094
218088
219061
220009
220934
221835
222713
223566
224393
225192
225962
226700
227404
228076
228712
229318
229896
230452
230998
231538
232086
232651
233244
233875
234554
235291
236091
236960
237899
238910
239994
241153
242386
243693
245072
246520
248032
249604
251230
252905
254626
256391
258200
260054
261952
263896
265884
267916
269988
272097
274237
276406
278601
280824
283073
285349
287649
289967
292296
294629
296957
299270
301560
303819
306042
308208
310320
312338
314149
315778
317269
318790
320198
321387
322468
323419
324270
325058
325830
326633
327497
328428
329428
330503
331663
332923
334296
335798
337450
339285
341348
343580
345978
348625
351569
354825
358395
362278
366468
370962
375763
380865
386281
392042
398187
404782
411927
419786
428772
439756
453580
470592
493588
523792
559792
597759
633851
666181
694750
720364
744734
766194
787058
807716
828431
848496
868133
887904
907910
928146
949603
972182
995749
1.02093e+06
1.04822e+06
1.07741e+06
1.10826e+06
1.14106e+06
1.17668e+06
1.21574e+06
1.26e+06
1.31164e+06
1.37228e+06
1.44393e+06
1.52939e+06
1.63187e+06
1.75161e+06
1.88706e+06
2.04071e+06
2.21262e+06
2.4003e+06
2.60236e+06
206356
206581
206896
207411
208040
208787
209621
210524
211476
212463
213475
214499
215526
216550
217559
218552
219525
220474
221401
222304
223183
224037
224865
225665
226434
227170
227872
228541
229175
229780
230357
230914
231459
231999
232546
233110
233702
234333
235014
235752
236553
237420
238357
239366
240447
241603
242832
244134
245509
246952
248460
250028
251651
253323
255042
256806
258613
260464
262360
264301
266287
268316
270385
272490
274628
276793
278986
281206
283453
285727
288025
290342
292672
295006
297335
299650
301940
304193
306400
308556
310656
312660
314526
316187
317659
319007
320236
321399
322497
323517
324455
325333
326187
327055
327960
328917
329939
331038
332225
333513
334911
336436
338110
339966
342053
344298
346708
349363
352312
355571
359140
363022
367207
371696
376488
381581
386988
392737
398869
405453
412586
420434
429413
440397
454217
471264
494277
524530
560622
598685
634836
667166
695671
721216
745463
766833
787605
808219
828907
848983
868642
888392
908163
928277
949482
971758
995449
1.02058e+06
1.04766e+06
1.07677e+06
1.10773e+06
1.14063e+06
1.17639e+06
1.21548e+06
1.25971e+06
1.31148e+06
1.37247e+06
1.44459e+06
1.53006e+06
1.63192e+06
1.75174e+06
1.8875e+06
2.04066e+06
2.21241e+06
2.3998e+06
2.60337e+06
207003
207221
207513
208040
208655
209394
210220
211116
212065
213050
214059
215080
216104
217122
218127
219115
220083
221029
221952
222852
223729
224582
225408
226206
226973
227708
228409
229077
229712
230320
230900
231462
232011
232555
233105
233673
234269
234903
235586
236325
237126
237992
238927
239932
241009
242160
243385
244682
246051
247489
248991
250554
252171
253839
255553
257311
259114
260960
262851
264786
266766
268789
270853
272954
275087
277250
279440
281658
283903
286175
288471
290788
293118
295451
297780
300095
302384
304636
306838
308991
311078
313072
314937
316600
318047
319403
320644
321793
322861
323864
324820
325743
326651
327566
328511
329504
330562
331698
332920
334238
335660
337206
338901
340778
342882
345149
347573
350240
353197
356462
360037
363922
368109
372598
377387
382476
387877
393619
399744
406321
413448
421292
430275
441268
455099
472167
495211
525503
561632
599717
635870
668182
696655
722174
746291
767600
788300
808845
829486
849521
869098
888830
908629
928829
949873
972050
995781
1.02093e+06
1.04781e+06
1.07664e+06
1.10739e+06
1.14038e+06
1.17647e+06
1.21577e+06
1.26006e+06
1.31183e+06
1.37303e+06
1.44551e+06
1.53128e+06
1.63294e+06
1.75305e+06
1.88969e+06
2.04222e+06
2.21336e+06
2.4007e+06
2.6071e+06
207765
207970
208251
208787
209394
210132
210953
211844
212786
213765
214769
215785
216806
217822
218825
219812
220779
221725
222648
223549
224426
225278
226103
226900
227664
228398
229096
229763
230397
231004
231585
232148
232699
233245
233798
234368
234968
235605
236290
237030
237830
238694
239626
240628
241701
242846
244065
245356
246719
248150
249646
251202
252813
254476
256185
257939
259737
261579
263464
265395
267369
269387
271445
273541
275671
277831
280019
282235
284480
286750
289046
291361
293688
296020
298347
300659
302945
305194
307393
309540
311620
313603
315464
317137
318559
319918
321170
322331
323422
324451
325434
326383
327320
328269
329253
330289
331392
332573
333837
335192
336646
338221
339944
341847
343975
346263
348704
351382
354347
357615
361191
365073
369256
373738
378517
383594
388982
394709
400820
407383
414495
422331
431316
442318
456159
473243
496322
526657
562811
600902
637035
669311
697748
723241
747236
768485
789139
809620
830223
850218
869675
889326
909045
929235
950200
972351
995944
1.02096e+06
1.04769e+06
1.07639e+06
1.10718e+06
1.14037e+06
1.1768e+06
1.21641e+06
1.26073e+06
1.3124e+06
1.37389e+06
1.44689e+06
1.53319e+06
1.63474e+06
1.75448e+06
1.89213e+06
2.04439e+06
2.21457e+06
2.40246e+06
2.61272e+06
208622
208806
209085
209621
210220
210953
211768
212652
213590
214565
215567
216583
217604
218620
219624
220612
221579
222525
223449
224349
225226
226076
226900
227694
228457
229188
229884
230550
231184
231792
232375
232941
233496
234046
234604
235179
235784
236425
237113
237854
238655
239519
240450
241449
242519
243660
244874
246159
247514
248937
250425
251974
253578
255234
256938
258687
260480
262316
264197
266121
268089
270101
272154
274245
276372
278530
280717
282933
285177
287449
289744
292059
294385
296715
299039
301348
303632
305877
308073
310216
312288
314267
316133
317806
319228
320601
321874
323055
324160
325203
326208
327191
328173
329174
330213
331305
332464
333699
335011
336408
337899
339509
341261
343191
345347
347651
350109
352797
355765
359032
362604
366479
370652
375122
379885
384944
390314
396020
402110
408653
415745
423571
432557
443572
457422
474533
497648
528026
564213
602300
638396
670618
699007
724477
748326
769507
790126
810544
831110
851064
870387
889940
909546
929668
950563
972647
996076
1.02098e+06
1.04763e+06
1.07626e+06
1.10702e+06
1.14029e+06
1.17699e+06
1.21693e+06
1.26147e+06
1.31299e+06
1.37451e+06
1.44798e+06
1.53487e+06
1.63666e+06
1.75579e+06
1.8939e+06
2.04743e+06
2.21655e+06
2.40453e+06
2.61629e+06
209551
209713
209994
210524
211116
211844
212652
213532
214466
215440
216442
217460
218484
219503
220510
221501
222470
223418
224343
225244
226120
226970
227792
228585
229346
230076
230772
231438
232073
232683
233270
233840
234400
234957
235521
236103
236713
237360
238052
238796
239599
240464
241394
242391
243458
244596
245803
247081
248429
249844
251323
252863
254460
256110
257808
259553
261342
263174
265049
266968
268931
270936
272984
275071
277194
279350
281538
283755
286000
288273
290569
292884
295209
297537
299859
302165
304446
306689
308882
311020
313086
315067
316946
318621
320065
321459
322756
323963
325097
326177
327224
328257
329294
330356
331459
332618
333843
335138
336502
337944
339475
341120
342901
344857
347038
349353
351821
354513
357478
360736
364295
368155
372310
376759
381498
386534
391878
397557
403620
410136
417204
425015
434001
445027
458879
476022
499166
529587
565805
603882
639930
672093
700430
725883
749558
770673
791268
811632
832167
852083
871267
890726
910224
930263
951060
973013
996270
1.02109e+06
1.04771e+06
1.07637e+06
1.1071e+06
1.14035e+06
1.17712e+06
1.21728e+06
1.26206e+06
1.31358e+06
1.37483e+06
1.44841e+06
1.53586e+06
1.63825e+06
1.75714e+06
1.89473e+06
2.05018e+06
2.21971e+06
2.40743e+06
2.61792e+06
210533
210670
210958
211476
212065
212786
213590
214466
215398
216374
217379
218402
219431
220456
221469
222464
223437
224388
225313
226215
227090
227939
228760
229552
230313
231042
231739
232407
233044
233659
234251
234827
235395
235959
236532
237122
237740
238394
239092
239841
240648
241515
242445
243442
244507
245641
246844
248116
249455
250862
252332
253864
255454
257098
258792
260533
262319
264147
266018
267932
269889
271889
273932
276015
278135
280291
282479
284697
286945
289219
291517
293833
296159
298487
300808
303113
305392
307634
309828
311964
314031
316021
317919
319607
321087
322515
323848
325096
326276
327409
328515
329614
330725
331865
333048
334286
335584
336943
338362
339849
341420
343096
344901
346877
349075
351391
353859
356544
359495
362733
366269
370102
374229
378647
383354
388356
393667
399309
405338
411818
418855
426648
435630
446661
460519
477686
500859
531331
567587
605652
641650
673755
702045
727461
750950
771999
792569
812887
833391
853275
872331
891713
911124
931094
951802
973644
996798
1.02158e+06
1.0482e+06
1.07685e+06
1.10751e+06
1.14063e+06
1.17727e+06
1.21754e+06
1.26258e+06
1.31437e+06
1.37547e+06
1.44885e+06
1.53658e+06
1.63971e+06
1.75928e+06
1.89611e+06
2.05202e+06
2.22401e+06
2.41173e+06
2.62324e+06
211553
211666
211959
212463
213050
213765
214565
215440
216374
217353
218364
219395
220433
221466
222486
223486
224463
225416
226343
227244
228120
228968
229789
230581
231342
232073
232772
233444
234086
234707
235307
235892
236469
237044
237627
238228
238856
239519
240225
240982
241793
242664
243597
244594
245658
246789
247988
249254
250586
251984
253446
254970
256554
258193
259883
261622
263405
265231
267099
269009
270962
272957
274995
277074
279192
281347
283537
285758
288008
290286
292587
294905
297234
299564
301887
304193
306474
308719
310917
313058
315133
317142
319068
320786
322313
323793
325182
326492
327742
328954
330147
331338
332545
333782
335059
336383
337756
339176
340644
342169
343770
345468
347284
349268
351467
353769
356221
358885
361807
365011
368511
372304
376391
380767
385430
390390
395657
401255
407242
413680
420680
428452
437431
448463
462323
479509
502716
533251
569548
607596
643537
675573
703813
729192
752498
773483
794025
814306
834784
854654
873614
892946
912295
932211
952862
974647
997766
1.02254e+06
1.04917e+06
1.07783e+06
1.1084e+06
1.14136e+06
1.1778e+06
1.21797e+06
1.26314e+06
1.31531e+06
1.37665e+06
1.4499e+06
1.53761e+06
1.64133e+06
1.76181e+06
1.89945e+06
2.05433e+06
2.22808e+06
2.41727e+06
2.63332e+06
212596
212688
212983
213475
214059
214769
215567
216442
217379
218364
219384
220425
221472
222514
223542
224548
225528
226483
227411
228312
229187
230036
230857
231650
232413
233147
233850
234528
235178
235807
236416
237013
237602
238190
238787
239401
240042
240717
241434
242200
243019
243895
244832
245832
246896
248026
249221
250482
251809
253200
254654
256172
257749
259384
261073
262810
264592
266417
268284
270192
272142
274134
276168
278244
280362
282517
284709
286933
289188
291470
293776
296099
298433
300769
303098
305409
307696
309949
312157
314312
316405
318445
320413
322184
323780
325336
326812
328216
329571
330896
332206
333515
334838
336183
337557
338963
340400
341868
343370
344919
346533
348233
350040
352016
354199
356463
358882
361508
364385
367541
370989
374730
378763
383086
387695
392604
397818
403366
409303
415694
422654
430403
439379
450409
464261
481462
504712
535320
571662
609691
645573
677537
705724
731062
754193
775115
795626
815867
836309
856167
875055
894357
913657
933537
954167
975960
999117
1.02392e+06
1.05059e+06
1.07926e+06
1.10977e+06
1.14263e+06
1.17885e+06
1.21885e+06
1.26404e+06
1.31649e+06
1.37822e+06
1.45184e+06
1.53957e+06
1.64372e+06
1.76474e+06
1.90352e+06
2.05936e+06
2.23206e+06
2.42366e+06
2.64118e+06
213647
213724
214019
214499
215080
215785
216583
217460
218402
219395
220425
221476
222534
223585
224620
225630
226614
227571
228498
229400
230275
231124
231946
232742
233509
234248
234958
235644
236303
236944
237566
238176
238780
239384
239998
240628
241285
241975
242706
243483
244311
245195
246138
247142
248208
249338
250532
251790
253112
254498
255946
257458
259031
260663
262349
264087
265870
267697
269565
271473
273422
275413
277445
279520
281637
283794
285989
288218
290478
292767
295079
297410
299752
302098
304436
306759
309058
311324
313552
315732
317862
319952
321988
323839
325538
327211
328814
330356
331855
333325
334777
336220
337662
339108
340565
342032
343510
345002
346516
348065
349670
351347
353126
355076
357212
359420
361787
364356
367172
370263
373645
377320
381289
385547
390095
394944
400100
405591
411476
417817
424735
432460
441436
452462
466295
483506
506815
537506
573897
611914
647739
679629
707756
733047
756009
776873
797355
817551
837952
857797
876637
895928
915192
935046
955666
977478
1.00068e+06
1.02551e+06
1.05222e+06
1.08094e+06
1.11147e+06
1.14437e+06
1.18055e+06
1.22045e+06
1.26551e+06
1.31805e+06
1.38013e+06
1.4543e+06
1.5426e+06
1.64706e+06
1.76896e+06
1.90791e+06
2.06522e+06
2.2386e+06
2.43129e+06
2.64972e+06
214694
214764
215054
215526
216104
216806
217604
218484
219431
220433
221472
222534
223600
224660
225701
226715
227701
228658
229585
230487
231362
232213
233038
233838
234610
235358
236077
236773
237444
238099
238736
239363
239985
240608
241242
241891
242567
243274
244020
244811
245652
246546
247496
248506
249577
250709
251904
253161
254481
255863
257307
258814
260384
262013
263700
265439
267225
269056
270927
272838
274790
276782
278815
280890
283008
285167
287366
289602
291871
294168
296491
298832
301186
303545
305898
308238
310556
312847
315109
317336
319529
321702
323845
325812
327674
329512
331291
333012
334685
336317
337912
339478
341018
342539
344047
345544
347035
348526
350027
351552
353121
354748
356471
358381
360429
362566
364858
367351
370090
373103
376407
380005
383900
388087
392567
397352
402446
407881
413712
420002
426878
434579
443555
454578
468389
485612
508993
539772
576218
614233
650009
681827
709886
735123
757918
778725
799172
819311
839645
859454
878238
897512
916744
936581
957197
979030
1.00227e+06
1.02715e+06
1.0539e+06
1.08266e+06
1.11323e+06
1.14616e+06
1.1824e+06
1.22237e+06
1.2674e+06
1.31996e+06
1.38244e+06
1.45713e+06
1.54625e+06
1.65119e+06
1.77377e+06
1.91384e+06
2.071e+06
2.24616e+06
2.43891e+06
2.66461e+06
215730
215799
216083
216550
217122
217822
218620
219503
220456
221466
222514
223585
224660
225726
226771
227787
228774
229730
230657
231559
232436
233289
234119
234925
235705
236462
237192
237901
238587
239258
239913
240559
241203
241847
242504
243175
243872
244598
245363
246170
247024
247930
248891
249909
250986
252123
253321
254580
255900
257281
258723
260228
261795
263424
265111
266853
268644
270480
272358
274276
276233
278228
280265
282342
284463
286625
288830
291074
293354
295665
298001
300356
302725
305100
307472
309835
312185
314521
316844
319153
321453
323757
326064
328200
330293
332343
334331
336249
338097
339873
341582
343235
344842
346411
347946
349450
350928
352386
353839
355303
356798
358342
359976
361818
363748
365791
367991
370394
373042
375968
379185
382700
386518
390631
395044
399765
404800
410180
415960
422203
429041
436720
445695
456717
470511
487753
511208
542078
578587
616613
652355
684112
712104
737279
759905
780651
801051
821124
841373
861131
879860
899119
918339
938170
958782
980612
1.00385e+06
1.02871e+06
1.05541e+06
1.08413e+06
1.11469e+06
1.14762e+06
1.18394e+06
1.22402e+06
1.26918e+06
1.322e+06
1.38486e+06
1.46008e+06
1.54988e+06
1.65577e+06
1.77888e+06
1.91973e+06
2.07809e+06
2.25372e+06
2.4495e+06
2.67248e+06
216747
216819
217094
217559
218127
218825
219624
220510
221469
222486
223542
224620
225701
226771
227818
228834
229821
230776
231704
232607
233486
234344
235180
235994
236783
237551
238294
239017
239720
240409
241084
241753
242419
243088
243769
244464
245184
245932
246716
247541
248412
249332
250304
251333
252418
253562
254766
256029
257352
258734
260177
261680
263246
264875
266564
268309
270107
271951
273839
275765
277731
279734
281777
283860
285985
288154
290368
292623
294918
297244
299598
301970
304356
306750
309148
311548
313953
316366
318794
321240
323708
326212
328744
331134
333492
335782
337970
340044
342026
343929
345753
347495
349155
350737
352250
353703
355104
356472
357824
359178
360557
361978
363510
365227
367036
368971
371070
373378
375934
378772
381904
385340
389083
393129
397478
402142
407124
412454
418187
424390
431194
438855
447830
458854
472637
489906
513436
544399
580979
619032
654758
686468
714395
739505
761952
782630
802972
822974
843134
862833
881494
900725
919929
939750
960368
982197
1.00542e+06
1.03025e+06
1.05688e+06
1.08556e+06
1.11606e+06
1.14894e+06
1.18527e+06
1.22535e+06
1.27071e+06
1.3238e+06
1.38711e+06
1.4631e+06
1.55357e+06
1.66004e+06
1.78448e+06
1.92575e+06
2.08484e+06
2.2622e+06
2.45973e+06
2.68898e+06
217742
217821
218088
218552
219115
219812
220612
221501
222464
223486
224548
225630
226715
227787
228834
229851
230838
231793
232722
233627
234511
235374
236217
237040
237840
238620
239377
240116
240837
241545
242242
242935
243627
244321
245028
245748
246493
247264
248070
248915
249803
250739
251725
252766
253861
255015
256226
257495
258823
260209
261654
263159
264725
266355
268046
269796
271601
273455
275354
277293
279270
281284
283337
285428
287563
289741
291965
294234
296544
298888
301259
303650
306056
308477
310916
313381
315881
318427
321029
323691
326406
329192
332014
334714
337278
339746
342138
344430
346595
348620
350499
352238
353847
355343
356746
358072
359335
360560
361765
362972
364204
365481
366900
368473
370170
372002
374009
376231
378706
381466
384523
387889
391567
395554
399850
404463
409399
414687
420380
426547
433324
440970
449947
460976
474756
492060
515667
546725
583384
621474
657197
688878
716750
741795
764066
784672
804953
824894
844971
864623
883235
902454
921670
941503
962133
983933
1.0071e+06
1.03187e+06
1.05842e+06
1.08701e+06
1.1174e+06
1.15022e+06
1.18654e+06
1.22663e+06
1.27222e+06
1.32584e+06
1.38965e+06
1.46592e+06
1.55737e+06
1.66491e+06
1.78962e+06
1.93266e+06
2.09292e+06
2.27134e+06
2.4721e+06
2.69381e+06
218716
218801
219061
219525
220083
220779
221579
222470
223437
224463
225528
226614
227701
228774
229821
230838
231824
232780
233711
234620
235508
236379
237231
238064
238875
239668
240439
241195
241934
242664
243384
244102
244820
245542
246275
247022
247793
248588
249417
250283
251191
252144
253145
254199
255306
256469
257689
258967
260301
261693
263142
264649
266218
267849
269543
271298
273111
274977
276888
278841
280833
282862
284928
287032
289179
291369
293606
295889
298213
300572
302961
305373
307810
310280
312797
315379
318045
320809
323679
326649
329701
332808
335847
338810
341692
344458
347063
349480
351690
353690
355488
357105
358566
359899
361128
362276
363362
364413
365450
366501
367579
368726
370033
371496
373096
374846
376781
378935
381344
384042
387040
390349
393974
397912
402163
406735
411632
416885
422543
428680
435435
443071
452052
463089
476872
494219
517903
549061
585804
623937
659667
691335
719166
744147
766261
786801
807027
826925
846948
866580
885181
904396
923604
943405
964005
985774
1.00891e+06
1.03365e+06
1.06017e+06
1.08872e+06
1.11905e+06
1.15189e+06
1.18824e+06
1.22846e+06
1.27444e+06
1.32821e+06
1.39251e+06
1.46981e+06
1.56178e+06
1.67033e+06
1.79656e+06
1.94012e+06
2.10226e+06
2.28193e+06
2.48593e+06
2.70364e+06
219665
219755
220009
220474
221029
221725
222525
223418
224388
225416
226483
227571
228658
229730
230776
231793
232780
233739
234674
235588
236484
237363
238223
239067
239890
240696
241482
242255
243014
243765
244510
245253
245998
246747
247509
248283
249080
249901
250755
251643
252571
253543
254560
255628
256747
257921
259151
260437
261780
263178
264633
266145
267717
269351
271048
272808
274628
276504
278429
280399
282407
284453
286536
288657
290819
293023
295272
297564
299899
302270
304678
307124
309620
312186
314849
317638
320574
323662
326903
330218
333546
336982
340422
343733
346864
349772
352414
354778
356871
358715
360332
361753
363009
364132
365152
366098
366996
367877
368764
369678
370631
371691
372917
374301
375832
377524
379409
381515
383878
386531
389482
392748
396331
400230
404445
408980
413846
419067
424695
430808
437544
445172
454157
465204
478996
496391
520154
551418
588251
626434
662175
693836
721635
746562
768540
789035
809230
829114
849112
868750
887349
906547
925735
945512
966100
987847
1.01096e+06
1.03563e+06
1.06211e+06
1.09064e+06
1.12098e+06
1.15388e+06
1.19036e+06
1.23072e+06
1.27699e+06
1.33136e+06
1.39647e+06
1.47416e+06
1.5672e+06
1.67717e+06
1.80397e+06
1.94937e+06
2.11322e+06
2.29452e+06
2.50238e+06
2.69346e+06
220591
220684
220934
221401
221952
222648
223449
224343
225313
226343
227411
228498
229585
230657
231704
232722
233711
234674
235614
236535
237439
238326
239197
240050
240885
241704
242506
243297
244076
244850
245620
246390
247162
247940
248729
249532
250357
251204
252083
252995
253944
254935
255969
257052
258184
259369
260608
261903
263254
264661
266122
267639
269215
270851
272551
274315
276142
278028
279968
281955
283984
286051
288155
290295
292472
294688
296945
299242
301582
303967
306409
308923
311537
314287
317210
320330
323656
327146
330700
334364
338171
342014
345733
349210
352376
355207
357704
359879
361760
363379
364764
365946
366961
367851
368663
369431
370182
370938
371723
372542
373424
374436
375613
376949
378436
380093
381945
384019
386351
388972
391891
395123
398672
402539
406722
411226
416062
421255
426856
432947
439666
447287
456277
467333
481140
498586
522430
553806
590738
628976
664727
696383
724157
749045
770914
791397
811591
831485
851469
871112
889718
908895
928062
947793
968343
990062
1.01318e+06
1.03788e+06
1.06437e+06
1.09289e+06
1.12324e+06
1.15623e+06
1.19281e+06
1.23343e+06
1.28018e+06
1.33492e+06
1.40062e+06
1.47954e+06
1.57363e+06
1.68452e+06
1.81304e+06
1.95983e+06
2.12458e+06
2.3086e+06
2.52061e+06
2.66379e+06
221492
221588
221835
222304
222852
223549
224349
225244
226215
227244
228312
229400
230487
231559
232607
233627
234620
235588
236535
237464
238377
239274
240154
241019
241865
242698
243516
244326
245126
245924
246720
247517
248317
249123
249942
250773
251626
252500
253405
254341
255312
256322
257373
258470
259614
260811
262061
263365
264725
266140
267609
269132
270712
272351
274054
275821
277654
279550
281505
283512
285563
287653
289778
291935
294124
296345
298601
300898
303248
305669
308190
310848
313690
316760
320082
323649
327351
331191
335252
339400
343554
347581
351333
354725
357723
360337
362587
364512
366139
367488
368595
369515
370309
371023
371695
372355
373018
373706
374436
375207
376061
377052
378204
379512
380972
382607
384440
386495
388807
391406
394300
397506
401027
404864
409017
413491
418300
423465
429042
435112
441816
449429
458422
469488
483315
500813
524742
556235
593272
631568
667333
698988
726745
751603
773392
793887
814102
834018
853989
873622
892233
911365
930485
950181
970737
992497
1.01568e+06
1.04039e+06
1.0669e+06
1.09543e+06
1.12583e+06
1.15891e+06
1.19562e+06
1.23643e+06
1.28346e+06
1.33892e+06
1.40552e+06
1.48532e+06
1.58044e+06
1.69293e+06
1.8228e+06
1.97108e+06
2.1377e+06
2.32443e+06
2.54346e+06
2.56552e+06
222370
222467
222713
223183
223729
224426
225226
226120
227090
228120
229187
230275
231362
232436
233486
234511
235508
236484
237439
238377
239298
240205
241095
241971
242830
243677
244513
245342
246166
246989
247811
248636
249465
250300
251147
252007
252889
253792
254723
255683
256676
257706
258774
259886
261044
262252
263512
264827
266195
267618
269095
270624
272209
273852
275556
277326
279164
281070
283039
285065
287138
289251
291395
293564
295757
297975
300229
302536
304928
307446
310143
313079
316301
319835
323612
327540
331732
336138
340610
345007
349220
353146
356702
359846
362574
364924
366902
368514
369819
370883
371765
372519
373190
373813
374418
375026
375650
376313
377020
377776
378623
379609
380750
382042
383488
385111
386932
388976
391274
393855
396730
399913
403407
407216
411341
415787
420569
425708
431262
437312
443999
451605
460597
471671
485520
503072
527088
558701
595849
634210
669995
701658
729408
754245
775976
796496
816738
836677
856623
876219
894821
913905
933014
952724
973305
995114
1.01836e+06
1.04316e+06
1.06976e+06
1.09832e+06
1.12874e+06
1.16191e+06
1.19868e+06
1.23965e+06
1.28702e+06
1.34311e+06
1.41036e+06
1.49111e+06
1.58786e+06
1.70156e+06
1.83285e+06
1.98354e+06
2.15174e+06
2.34113e+06
2.56193e+06
2.37045e+06
223223
223321
223566
224037
224582
225278
226076
226970
227939
228968
230036
231124
232213
233289
234344
235374
236379
237363
238326
239274
240205
241122
242023
242910
243783
244647
245502
246353
247201
248051
248901
249754
250612
251476
252352
253242
254152
255083
256040
257024
258039
259088
260174
261301
262473
263693
264964
266289
267666
269098
270582
272118
273708
275355
277062
278835
280679
282593
284575
286619
288712
290842
292997
295168
297356
299571
301839
304201
306715
309451
312482
315864
319596
323556
327764
332292
336991
341725
346305
350622
354621
358259
361505
364377
366829
368834
370430
371734
372823
373730
374505
375187
375811
376402
376984
377578
378194
378855
379557
380316
381168
382156
383294
384577
386014
387631
389445
391480
393767
396334
399191
402352
405822
409604
413701
418118
422876
427989
433520
439549
446220
453815
462805
473886
487756
505366
529469
561201
598466
636904
672721
704403
732155
756976
778662
799206
819469
839426
859331
878870
897477
916531
935651
955386
976032
997927
1.02129e+06
1.04614e+06
1.07281e+06
1.10141e+06
1.13194e+06
1.1653e+06
1.20222e+06
1.24348e+06
1.29125e+06
1.34784e+06
1.41558e+06
1.49763e+06
1.59563e+06
1.71052e+06
1.84438e+06
1.99618e+06
2.16622e+06
2.35922e+06
2.58657e+06
2.08556e+06
224052
224149
224393
224865
225408
226103
226900
227792
228760
229789
230857
231946
233038
234119
235180
236217
237231
238223
239197
240154
241095
242023
242935
243836
244725
245607
246483
247359
248233
249110
249988
250870
251757
252651
253557
254476
255415
256373
257356
258364
259401
260470
261574
262718
263904
265138
266420
267755
269142
270582
272073
273617
275213
276865
278577
280355
282203
284125
286118
288173
290277
292413
294566
296731
298918
301156
303497
306017
308800
311937
315475
319378
323519
328028
332840
337793
342700
347395
351764
355766
359410
362760
365721
368191
370229
371923
373296
374439
375432
376288
377032
377698
378316
378907
379494
380094
380719
381389
382095
382864
383725
384718
385855
387132
388564
390177
391985
394014
396291
398842
401681
404820
408265
412020
416092
420483
425217
430305
435815
441823
448476
456059
465044
476129
490021
507687
531873
563727
601116
639644
675507
707221
734985
759793
781441
802006
822279
842251
862116
881590
900226
919257
938415
958219
978969
1.00092e+06
1.02432e+06
1.04927e+06
1.07605e+06
1.10468e+06
1.13535e+06
1.16899e+06
1.20627e+06
1.2479e+06
1.29603e+06
1.35282e+06
1.42176e+06
1.50496e+06
1.60409e+06
1.72129e+06
1.85633e+06
2.00947e+06
2.18367e+06
2.37958e+06
2.60856e+06
1.81334e+06
224854
224948
225192
225665
226206
226900
227694
228585
229552
230581
231650
232742
233838
234925
235994
237040
238064
239067
240050
241019
241971
242910
243836
244753
245660
246564
247463
248365
249266
250172
251079
251990
252907
253830
254766
255714
256682
257666
258675
259707
260766
261855
262977
264138
265340
266587
267882
269227
270623
272071
273571
275123
276727
278387
280106
281890