/*--------------------------------*- C++ -*----------------------------------*\
  =========                 |
  \\      /  F ield         | OpenFOAM: The Open Source CFD Toolbox
   \\    /   O peration     | Website:  https://openfoam.org
    \\  /    A nd           | Version:  13
     \\/     M anipulation  |
\*---------------------------------------------------------------------------*/
FoamFile
{
    format      ascii;
    class       surfaceScalarField;
    location    "0.0021";
    object      phi;
}
// * * * * * * * * * * * * * * * * * * * * * * * * * * * * * * * * * * * * * //

dimensions      [1 0 -1 0 0 0 0];

internalField   nonuniform List<scalar> 
66301
(
0.0014251
0.0014251
0.00258863
0.00164388
0.00390603
0.00145572
0.0050143
0.00160743
0.00599299
0.00168692
0.00692176
0.00169789
0.00784342
0.00168105
0.00876561
0.00166969
0.00968961
0.00166922
0.0106467
0.0016498
0.0116778
0.00160147
0.0127998
0.00154699
0.0139967
0.00151679
0.0152389
0.00152058
0.016478
0.00157342
0.0176888
0.00164673
0.0188621
0.00171971
0.0199701
0.00180682
0.0210028
0.00188974
0.0219536
0.001966
0.0228174
0.002037
0.0235915
0.00210294
0.0242703
0.00216931
0.0248457
0.00224009
0.0253134
0.00231328
0.0256773
0.00238022
0.0259427
0.00244359
0.0261303
0.00249165
0.0262408
0.00253575
0.0262917
0.0025571
0.0263012
0.00257482
0.026301
0.00258779
0.026304
0.00260632
0.026334
0.00262085
0.0264225
0.00263078
0.0265945
0.00264219
0.0268641
0.00266649
0.0272395
0.00270746
0.0277264
0.00276393
0.0283245
0.00283854
0.0290283
0.00293733
0.0298366
0.00305495
0.0307533
0.00317881
0.0317866
0.00329977
0.0329434
0.00341417
0.0342262
0.0035218
0.0356328
0.00362368
0.0371599
0.00371972
0.0388051
0.00380922
0.0405698
0.00389031
0.0424592
0.00396118
0.0444792
0.00402247
0.0466316
0.00407879
0.0489117
0.0041358
0.0513103
0.0041963
0.0538185
0.00425846
0.0564308
0.00431786
0.0591443
0.00437117
0.0619556
0.00441872
0.0648566
0.00446618
0.0678333
0.00452082
0.0708687
0.00458834
0.0739482
0.00466858
0.0770623
0.00475656
0.0802059
0.00484558
0.083375
0.0049294
0.0865647
0.00500331
0.0897698
0.00506332
0.0929853
0.00510777
0.0962099
0.0051352
0.0994443
0.00514546
0.102684
0.00514386
0.105913
0.00513731
0.109103
0.00513477
0.112221
0.005142
0.115222
0.00516402
0.118056
0.00519801
0.120668
0.00523808
0.123026
0.00526784
0.125128
0.0052977
0.126911
0.00538141
0.128229
0.0053593
0.129124
0.00535007
0.129575
0.00518211
0.129104
0.00571042
0.126914
0.00709567
0.123651
0.00782018
0.12048
0.00745375
0.118173
0.00634942
0.116639
0.00536185
0.115314
0.00497474
0.113787
0.00506693
0.111851
0.00542293
0.109526
0.0057844
0.106946
0.00602848
0.104262
0.00614057
0.101624
0.00613026
0.099167
0.00602033
0.0969876
0.00585754
0.0951453
0.00568369
0.0936524
0.00553053
0.0924971
0.00540855
0.0917091
0.00531748
0.0913831
0.00527367
0.0914317
0.00525694
0.0917649
0.0052269
0.0925872
0.00522025
0.0940148
0.0052177
0.0960998
0.00523572
0.0988729
0.0052531
0.102394
0.00521969
0.106694
0.00515686
0.111726
0.00513576
0.117421
0.00517606
0.123745
0.00523351
0.130671
0.00528282
0.13818
0.00530152
0.146224
0.00528659
0.154684
0.0052849
0.163394
0.00533272
0.172161
0.00542831
0.180498
0.00561147
0.187176
0.00587596
0.190242
0.00621782
0.190533
0.00645285
0.183513
0.00686255
0.165788
0.007308
0.136782
0.00769487
0.101769
0.00768797
0.0693099
0.00709698
0.0455336
0.00610995
0.0320463
0.00527502
0.0273165
0.00520216
0.0274848
0.0062366
0.0350585
0.00706156
0.0461592
0.00817758
0.0593846
0.00909342
0.0746088
0.00999766
0.0921396
0.010829
0.112667
0.0115952
0.137688
0.0112343
0.168044
0.0105237
0.204234
0.0105554
0.248181
0.0115931
0.298627
0.0118091
0.355284
0.0150454
0.420119
0.016548
0.489463
0.0176928
0.561098
0.0179894
0.638336
0.0155471
0.723727
0.01195
0.817703
0.0106766
0.920486
0.01202
1.03166
0.0133511
1.1546
0.0150139
1.29802
0.0169458
1.47451
0.0169659
1.69241
0.0170473
1.95723
0.0190778
2.27879
0.0201715
2.66378
0.0230158
3.11622
0.025502
3.63773
0.0269396
4.23193
0.030449
4.91518
0.0334772
0.0369171
0.00164388
0.00258863
0.00302149
0.00302149
0.00458949
0.0026134
0.00615252
0.00270686
0.00759618
0.00286943
0.00895755
0.00293779
0.010275
0.00295373
0.0115719
0.00296301
0.0128399
0.003001
0.0140719
0.00303601
0.0152765
0.00304205
0.0164676
0.00303551
0.0176533
0.00305096
0.0188442
0.00309317
0.0200285
0.00319628
0.0212085
0.00331333
0.0223907
0.00341506
0.0235509
0.00354265
0.0246749
0.00366703
0.0257489
0.00378607
0.026762
0.00390101
0.0277082
0.0040098
0.0285805
0.00412106
0.0293728
0.0042399
0.0300797
0.00436451
0.0307001
0.00448274
0.0312304
0.00460269
0.0316823
0.00469745
0.0320505
0.00479024
0.0323517
0.00484679
0.0325974
0.00490121
0.0328073
0.00494832
0.0330072
0.00499676
0.0332138
0.00504736
0.0334487
0.00509714
0.0337371
0.00514753
0.0340972
0.00521635
0.0345418
0.00531218
0.0350846
0.00543247
0.0357372
0.00558087
0.0365085
0.00576523
0.0374071
0.00597503
0.0384432
0.00619139
0.0396276
0.00639965
0.0409687
0.00659392
0.0424698
0.00677432
0.0441282
0.0069443
0.0459372
0.00710647
0.0478877
0.00726233
0.0499728
0.00741006
0.0521893
0.0075458
0.0545379
0.00766798
0.0570189
0.00778189
0.0596283
0.00789657
0.0623579
0.0080173
0.0651986
0.00814146
0.0681424
0.0082622
0.0711818
0.00837499
0.0743089
0.00848079
0.0775123
0.00858916
0.0807783
0.00871175
0.0840918
0.00885773
0.0874403
0.00902707
0.0908151
0.00921111
0.0942118
0.00939664
0.0976265
0.00957221
0.101053
0.00972986
0.104482
0.00986371
0.107903
0.00997369
0.111303
0.0100605
0.11467
0.0101252
0.117991
0.010175
0.121252
0.0102134
0.124436
0.0102496
0.127514
0.0102985
0.130464
0.0103588
0.133259
0.0104191
0.135866
0.0104756
0.138264
0.0104929
0.140313
0.0106481
0.141851
0.0110669
0.142155
0.0115236
0.141745
0.0119947
0.140232
0.0124035
0.138612
0.0124932
0.137994
0.0125259
0.137881
0.0123312
0.137416
0.0120896
0.136291
0.0114618
0.134685
0.0107952
0.132901
0.0104612
0.131101
0.010498
0.129249
0.0108324
0.127254
0.0112582
0.1251
0.0116013
0.122844
0.0117929
0.120565
0.0118223
0.118346
0.0117103
0.116267
0.0115151
0.114398
0.0112848
0.112789
0.0110639
0.111477
0.0108656
0.110517
0.0107037
0.10999
0.0105983
0.109968
0.0105198
0.110182
0.010455
0.110923
0.0103824
0.112299
0.0103547
0.114376
0.010356
0.117195
0.0103408
0.120761
0.0102784
0.125078
0.0101829
0.130106
0.0101669
0.135808
0.0102405
0.142214
0.0102851
0.149299
0.0103134
0.156981
0.0103401
0.165203
0.0103119
0.173822
0.0103292
0.182635
0.0104809
0.191497
0.0106837
0.200014
0.0109909
0.207048
0.0114077
0.210801
0.0118297
0.211472
0.0123312
0.205556
0.0128994
0.189323
0.0135758
0.16181
0.014396
0.127813
0.0151217
0.0952609
0.0155516
0.0699256
0.0156493
0.0539025
0.015555
0.0465667
0.0156518
0.0455506
0.0162285
0.0518895
0.0171032
0.0624591
0.0179017
0.0755723
0.0189649
0.0911277
0.020131
0.11008
0.0204288
0.131032
0.0227284
0.153458
0.0249208
0.177352
0.0273932
0.206432
0.027315
0.24538
0.0230318
0.296093
0.0213828
0.358434
0.0244216
0.427538
0.0266712
0.503438
0.0270099
0.585151
0.0264515
0.670071
0.0249554
0.757709
0.0227499
0.851772
0.02206
0.955265
0.0242685
1.06814
0.025996
1.19295
0.0289495
1.33679
0.0338923
1.51068
0.0369064
1.72465
0.0387911
1.98579
0.0429319
2.30457
0.0447304
2.68951
0.0478649
3.14301
0.0527761
3.66762
0.0555943
4.26464
0.0634569
4.94605
0.0688941
0.072723
0.00145572
0.00390603
0.0026134
0.00458949
0.00398049
0.00398049
0.00548541
0.0038752
0.00693253
0.0040585
0.00833022
0.00414321
0.00970049
0.00416812
0.0110557
0.00418707
0.0123782
0.00426364
0.0136467
0.0043685
0.0148529
0.00446178
0.0160023
0.0045453
0.0171112
0.00464157
0.0182056
0.00474275
0.0192944
0.00489555
0.0203956
0.0050393
0.0215137
0.00515349
0.0226258
0.00530345
0.023718
0.00545108
0.0247741
0.00559714
0.0257822
0.00574105
0.0267349
0.00587883
0.0276246
0.00602164
0.0284461
0.00617413
0.0291943
0.00633531
0.0298674
0.00649147
0.0304613
0.00665427
0.0309813
0.00678497
0.0314225
0.00691894
0.0318052
0.00700556
0.0321353
0.00709459
0.0324288
0.00717388
0.0327069
0.00725585
0.032976
0.00735468
0.0332562
0.00745578
0.0335669
0.00756128
0.0339227
0.00769471
0.0343376
0.00786733
0.03483
0.0080737
0.0354191
0.00831556
0.0361232
0.00859321
0.0369569
0.00889291
0.0379363
0.00919336
0.0390752
0.00947754
0.040382
0.00973964
0.0418589
0.00998153
0.0435012
0.0102101
0.0452995
0.0104314
0.0472425
0.0106492
0.0493212
0.0108616
0.0515306
0.0110626
0.0538696
0.0112484
0.0563368
0.0114247
0.0589278
0.0116023
0.0616355
0.0117877
0.0644518
0.0119768
0.0673687
0.0121616
0.0703769
0.0123378
0.0734651
0.0125084
0.0766194
0.0126868
0.0798249
0.0128874
0.0830677
0.0131207
0.0863386
0.013385
0.089633
0.0136668
0.0929502
0.013947
0.0962883
0.0142107
0.0996415
0.0144481
0.102999
0.0146537
0.106347
0.0148302
0.109669
0.0149808
0.112949
0.0151073
0.116174
0.0152168
0.119331
0.0153088
0.122402
0.0153926
0.125369
0.0154844
0.128216
0.0155746
0.130917
0.015658
0.133406
0.015757
0.135587
0.0158637
0.137317
0.0162434
0.138581
0.0169086
0.139297
0.0174927
0.139676
0.0177469
0.139942
0.017719
0.140356
0.0173439
0.140979
0.0169848
0.141127
0.0167615
0.140699
0.0168559
0.139227
0.0169487
0.136842
0.0169064
0.133956
0.0168296
0.131019
0.0167567
0.128328
0.0167606
0.125909
0.0168881
0.123659
0.0170653
0.121489
0.017196
0.119369
0.0172138
0.117319
0.0171
0.115381
0.0168963
0.113611
0.0166406
0.112057
0.0163822
0.110774
0.0161357
0.109829
0.0159251
0.10931
0.0157726
0.109294
0.0156483
0.109518
0.0155406
0.11024
0.0154249
0.111578
0.0153933
0.113615
0.0153863
0.116385
0.0153548
0.119877
0.015293
0.124084
0.0152065
0.128982
0.0152227
0.134568
0.0153241
0.14087
0.0153513
0.147846
0.0153703
0.155412
0.0154209
0.163482
0.0154202
0.171902
0.0155101
0.180499
0.0157893
0.189144
0.016106
0.197463
0.0165309
0.204352
0.0170703
0.207949
0.0175723
0.208566
0.0182099
0.202659
0.018954
0.186534
0.0197597
0.159303
0.020771
0.12592
0.0218248
0.0944194
0.022746
0.0704021
0.0235179
0.0554599
0.0242414
0.0484613
0.025156
0.0472021
0.0261539
0.0525652
0.0275141
0.0619289
0.0285645
0.0739132
0.0298491
0.0885066
0.0311915
0.106396
0.0310544
0.126945
0.0342457
0.151176
0.0368068
0.17992
0.0394622
0.213932
0.0395468
0.253756
0.0363695
0.30351
0.0339528
0.364026
0.0346604
0.433644
0.0362491
0.510819
0.0362271
0.592679
0.0360701
0.675733
0.0367814
0.758887
0.0376499
0.846992
0.0384894
0.94599
0.0401044
1.05614
0.0409619
1.18012
0.0438509
1.32573
0.0492151
1.50372
0.0528722
1.72446
0.0549518
1.99427
0.0606075
2.32004
0.0653244
2.70995
0.0708617
3.16615
0.0801518
3.691
0.0854996
4.28521
0.0962039
4.95858
0.101936
0.104955
0.00160743
0.0050143
0.00270686
0.00615252
0.0038752
0.00548541
0.0051781
0.0051781
0.00647408
0.00534657
0.00775976
0.00542038
0.00904862
0.00543612
0.0103473
0.00544982
0.0116379
0.00554714
0.0128969
0.00570239
0.0141104
0.00586579
0.015276
0.00602746
0.0164021
0.00619827
0.017506
0.00635952
0.0185928
0.00656581
0.0196828
0.00673785
0.020778
0.00686931
0.0218625
0.00704125
0.0229281
0.00720713
0.0239612
0.0073737
0.0249527
0.00753796
0.0258962
0.00769546
0.0267849
0.00786016
0.0276153
0.00803511
0.0283833
0.00822104
0.0290875
0.00840311
0.0297235
0.00859585
0.0302947
0.00875236
0.0307959
0.00891989
0.0312429
0.00903225
0.0316349
0.00915697
0.0319859
0.00927353
0.0323076
0.00940006
0.032613
0.00955366
0.0329235
0.00971119
0.0332575
0.00988059
0.033631
0.0100886
0.0340608
0.0103468
0.0345654
0.0106462
0.0351631
0.0109839
0.0358719
0.0113538
0.0367098
0.011741
0.0376948
0.0121213
0.038841
0.0124763
0.0401575
0.0128007
0.0416471
0.0130977
0.0433065
0.0133772
0.0451283
0.0136487
0.0471025
0.0139187
0.0492204
0.0141865
0.0514755
0.0144458
0.0538634
0.0146921
0.0563793
0.0149317
0.0590163
0.0151759
0.0617663
0.0154303
0.0646213
0.0156886
0.0675728
0.0159413
0.0706109
0.0161851
0.0737235
0.0164252
0.0768962
0.0166781
0.0801154
0.0169599
0.0833695
0.0172813
0.0866522
0.0176379
0.0899611
0.0180128
0.093296
0.0183825
0.0966539
0.0187303
0.100027
0.0190466
0.1034
0.0193271
0.106757
0.0195776
0.110073
0.0198049
0.113329
0.0200127
0.116501
0.0202089
0.119572
0.0203894
0.122519
0.0205617
0.125325
0.0207347
0.127987
0.0208827
0.130495
0.0210002
0.132817
0.0211152
0.134863
0.0212752
0.136555
0.0217737
0.137913
0.0225313
0.138952
0.0231115
0.13966
0.0232049
0.139867
0.0229709
0.139779
0.0225598
0.139534
0.0220727
0.138859
0.0219424
0.137633
0.0223004
0.135897
0.0226239
0.133825
0.0226582
0.131609
0.022505
0.129378
0.0222733
0.127176
0.0221331
0.125025
0.0221403
0.12294
0.0222158
0.120924
0.0222708
0.118983
0.0222394
0.117132
0.0220983
0.115388
0.0218841
0.113783
0.0216206
0.112352
0.0213553
0.111156
0.0210959
0.110272
0.0208709
0.1098
0.0207025
0.109801
0.0205566
0.110046
0.0204047
0.110766
0.0202674
0.112095
0.0202411
0.114131
0.0202244
0.116903
0.0201813
0.120393
0.0201335
0.124586
0.0200779
0.129458
0.0201479
0.135015
0.0202914
0.141276
0.0203233
0.148193
0.0203622
0.155686
0.020459
0.163668
0.0205108
0.171984
0.0206948
0.180485
0.0211001
0.189045
0.0215233
0.197292
0.0220558
0.204125
0.0227035
0.207642
0.0232959
0.208212
0.0240526
0.202242
0.0249591
0.186007
0.0259288
0.158589
0.0271475
0.124942
0.0285391
0.0931546
0.029948
0.0689301
0.0313501
0.0539597
0.03279
0.0471261
0.0344287
0.0459749
0.0359672
0.051577
0.0376359
0.0611982
0.0390615
0.0732685
0.0406589
0.087737
0.042343
0.10504
0.042225
0.124961
0.0463548
0.149021
0.0488319
0.178392
0.050835
0.213628
0.050664
0.254872
0.04873
0.304191
0.046474
0.362724
0.0463007
0.431239
0.0470077
0.506843
0.0471836
0.586164
0.0479625
0.667606
0.0498798
0.75178
0.0513851
0.842287
0.0525428
0.943151
0.0544762
1.05423
0.0556324
1.17886
0.0585991
1.32522
0.0641136
1.50292
0.0694574
1.72228
0.0733656
1.99063
0.080635
2.3144
0.0883121
2.70358
0.0959871
3.16115
0.10743
3.68753
0.114431
4.28446
0.124955
4.95891
0.134701
0.139886
0.00168692
0.00599299
0.00286943
0.00759618
0.0040585
0.00693253
0.00534657
0.00647408
0.006636
0.006636
0.00789255
0.0067284
0.00912485
0.00676476
0.0103446
0.00679379
0.0115518
0.00691168
0.0127407
0.0070981
0.0139083
0.00730138
0.0150563
0.00750692
0.0161923
0.00771874
0.0173256
0.00791448
0.0184544
0.00815538
0.0195927
0.00834359
0.0207296
0.00849404
0.0218496
0.00869047
0.0229444
0.00887783
0.0240004
0.00906872
0.0250099
0.00925565
0.0259673
0.00943474
0.0268667
0.009622
0.0277066
0.00981833
0.0284835
0.0100274
0.0291965
0.0102329
0.0298415
0.0104521
0.0304204
0.0106341
0.0309288
0.0108348
0.0313771
0.0109761
0.0317626
0.0111424
0.0320984
0.0113034
0.0323922
0.0114856
0.0326644
0.0116985
0.0329372
0.0119187
0.0332295
0.0121593
0.0335618
0.0124453
0.0339549
0.0127863
0.0344293
0.01317
0.0350043
0.0135909
0.0357002
0.0140397
0.0365362
0.0145003
0.0375283
0.0149479
0.0386865
0.0153652
0.0400155
0.0157473
0.0415147
0.0160985
0.0431791
0.0164303
0.0450009
0.016754
0.0469714
0.0170781
0.0490829
0.0174027
0.0513292
0.0177221
0.0537049
0.0180323
0.0562043
0.0183398
0.0588203
0.0186558
0.0615451
0.0189838
0.0643708
0.0193157
0.0672888
0.0196405
0.0702881
0.0199566
0.0733568
0.0202705
0.0764816
0.0206011
0.0796517
0.020964
0.0828594
0.0213691
0.0861025
0.0218092
0.0893811
0.0222651
0.0926962
0.0227114
0.0960437
0.0231318
0.0994142
0.0235171
0.102793
0.0238646
0.10616
0.024182
0.109495
0.024479
0.112775
0.0247611
0.115978
0.0250373
0.119082
0.0253025
0.122062
0.0255647
0.124893
0.025827
0.127559
0.0260532
0.130042
0.0262356
0.132319
0.0263874
0.134351
0.0265803
0.136178
0.0270633
0.137836
0.0277328
0.139268
0.028219
0.14026
0.0282933
0.140478
0.0280949
0.140272
0.0277997
0.139593
0.0274402
0.138424
0.0274646
0.136944
0.0278034
0.135311
0.0279866
0.133551
0.0278948
0.131652
0.0276855
0.129593
0.0274446
0.127397
0.0273066
0.125143
0.0272744
0.122921
0.027262
0.120779
0.0272172
0.118739
0.0271047
0.116805
0.026912
0.114983
0.0266723
0.113295
0.0263911
0.111782
0.0261125
0.110513
0.0258369
0.109566
0.0255952
0.10905
0.0254043
0.109034
0.0252199
0.109242
0.0250389
0.109928
0.024882
0.111238
0.024849
0.113275
0.0248126
0.116054
0.0247633
0.119553
0.0247402
0.123755
0.0247261
0.128644
0.0248557
0.134225
0.0250468
0.140498
0.0251087
0.147402
0.0252047
0.154862
0.0253798
0.162788
0.0255152
0.171046
0.0258087
0.179509
0.0263274
0.188055
0.0268389
0.196305
0.0274612
0.203151
0.0282035
0.206665
0.0289
0.20723
0.0298117
0.201211
0.0308813
0.18485
0.0320829
0.157242
0.0336035
0.123349
0.0354041
0.0913121
0.0373267
0.0668979
0.0393126
0.0518535
0.0413335
0.0451197
0.0435324
0.0441088
0.0454949
0.0499893
0.0474824
0.0599771
0.0492471
0.0723418
0.0511582
0.0870958
0.05317
0.104559
0.053235
0.124705
0.0582538
0.148929
0.0606817
0.178261
0.0621848
0.213559
0.0616168
0.255353
0.0601496
0.304914
0.0583178
0.363498
0.0583846
0.431586
0.0585921
0.505997
0.0592026
0.584284
0.0602415
0.665953
0.0618857
0.75128
0.0633938
0.843019
0.0652287
0.944991
0.0681458
1.0569
0.0704061
1.18225
0.0737357
1.32913
0.0792606
1.50695
0.0863922
1.72628
0.0929003
1.99623
0.101264
2.3216
0.110908
2.71103
0.120782
3.16948
0.133338
3.69518
0.143174
4.29043
0.152968
4.96374
0.167712
0.17649
0.00169789
0.00692176
0.00293779
0.00895755
0.00414321
0.00833022
0.00542038
0.00775976
0.0067284
0.00789255
0.00800419
0.00800419
0.00924694
0.00806945
0.0104628
0.00812554
0.0116569
0.00826909
0.0128322
0.00848184
0.0139922
0.00871258
0.0151433
0.00894452
0.0162946
0.00917805
0.0174513
0.00939311
0.0186107
0.00965501
0.0197836
0.00984984
0.0209501
0.0100198
0.0220971
0.0102396
0.023216
0.0104484
0.0242926
0.0106645
0.0253194
0.0108752
0.0262892
0.0110785
0.0271965
0.0112911
0.02804
0.0115112
0.0288163
0.0117458
0.0295249
0.0119762
0.0301629
0.0122227
0.0307302
0.0124336
0.0312247
0.0126686
0.0316526
0.0128443
0.0320134
0.0130567
0.0323203
0.0132667
0.0325833
0.0135086
0.0328274
0.0137808
0.0330751
0.0140644
0.033346
0.0143757
0.0336627
0.0147348
0.0340478
0.0151485
0.0345233
0.0156032
0.0351094
0.0160928
0.0358272
0.0166056
0.0366946
0.0171258
0.0377237
0.0176305
0.0389195
0.0181047
0.0402815
0.0185446
0.0418054
0.0189541
0.0434843
0.0193451
0.0453102
0.0197287
0.0472758
0.0201141
0.0493748
0.0205016
0.0516023
0.0208865
0.0539533
0.0212655
0.0564224
0.0216455
0.0590039
0.0220367
0.0616912
0.0224408
0.0644767
0.0228482
0.0673514
0.0232476
0.0703038
0.023639
0.073322
0.0240295
0.0763942
0.0244385
0.0795126
0.02488
0.082673
0.0253621
0.085876
0.0258752
0.0891234
0.0264
0.0924157
0.0269107
0.0957477
0.0273933
0.099109
0.0278393
0.102484
0.028247
0.105855
0.0286244
0.109201
0.0289828
0.112504
0.0293289
0.115741
0.0296728
0.118893
0.0300102
0.121932
0.0303508
0.124833
0.0306938
0.127565
0.0310014
0.130097
0.0312654
0.1324
0.031482
0.134464
0.031714
0.136372
0.0321333
0.138161
0.0326614
0.139741
0.0330311
0.140865
0.0331262
0.141139
0.0330421
0.140981
0.0328758
0.140218
0.0327227
0.13901
0.0328445
0.137589
0.0330618
0.136012
0.0330996
0.134214
0.0329572
0.132187
0.0327464
0.129959
0.0325133
0.127614
0.0323403
0.125254
0.0322159
0.122952
0.0320791
0.120742
0.0319166
0.118636
0.0317106
0.116639
0.0314513
0.114756
0.0311671
0.113014
0.0308468
0.11146
0.0305362
0.110168
0.0302319
0.109213
0.0299643
0.1087
0.029744
0.108686
0.0295261
0.108911
0.0293189
0.109603
0.0291548
0.110923
0.029117
0.112977
0.0290634
0.115775
0.0290205
0.119295
0.0290341
0.123526
0.0290696
0.128457
0.0292619
0.134091
0.0295061
0.140406
0.0296237
0.147333
0.0298103
0.154802
0.0300917
0.162724
0.030339
0.170978
0.0307551
0.179456
0.0313807
0.188027
0.0319769
0.196297
0.0326883
0.203155
0.0335295
0.206657
0.0343543
0.207223
0.0354516
0.201146
0.0367078
0.184666
0.0381745
0.15692
0.0400649
0.122873
0.0423274
0.0907094
0.0447815
0.066235
0.0473191
0.0512083
0.0498433
0.0445922
0.0525131
0.0437131
0.054793
0.0498649
0.0571462
0.0601234
0.0592219
0.0726733
0.0614509
0.0876092
0.063787
0.105269
0.0640685
0.125795
0.0698169
0.150403
0.0721832
0.179842
0.0734586
0.214953
0.072702
0.256772
0.0713522
0.306569
0.0698528
0.365634
0.0700961
0.433716
0.0699884
0.508099
0.0706722
0.586771
0.0714437
0.668964
0.072897
0.754685
0.0747617
0.846472
0.0777401
0.948297
0.081902
1.06023
0.0855647
1.18589
0.0896961
1.33317
0.0951815
1.51181
0.103283
1.73176
0.112144
2.00314
0.121717
2.331
0.131757
2.72077
0.1436
3.1801
0.157256
3.70653
0.170421
4.30174
0.181107
4.97686
0.199396
0.216273
0.00168105
0.00784342
0.00295373
0.010275
0.00416812
0.00970049
0.00543612
0.00904862
0.00676476
0.00912485
0.00806945
0.00924694
0.00933944
0.00933944
0.0105729
0.0094264
0.0117759
0.00959667
0.0129568
0.00983037
0.0141228
0.0100791
0.0152823
0.0103262
0.0164443
0.0105712
0.0176103
0.0108001
0.0187804
0.0110763
0.0199633
0.011274
0.0211342
0.0114658
0.0222854
0.0117063
0.0234084
0.0119341
0.0244899
0.0121724
0.0255227
0.0124039
0.0264987
0.0126296
0.0274125
0.0128656
0.0282625
0.0131078
0.0290453
0.0133661
0.0297607
0.0136195
0.0304057
0.0138917
0.0309792
0.0141315
0.0314805
0.0143995
0.0319124
0.0146134
0.0322769
0.014874
0.0325873
0.0151352
0.0328564
0.015438
0.0331097
0.0157694
0.0333683
0.0161168
0.0336519
0.0164972
0.0339836
0.0169246
0.0343868
0.0174039
0.0348837
0.0179215
0.0354946
0.0184715
0.0362401
0.0190403
0.0371358
0.0196141
0.0381907
0.0201729
0.0394064
0.0207048
0.0407799
0.0212058
0.042306
0.021679
0.0439782
0.0221347
0.0457903
0.0225829
0.0477372
0.0230326
0.0498148
0.023484
0.0520193
0.0239341
0.0543464
0.0243808
0.0567914
0.0248316
0.0593494
0.0252955
0.0620143
0.0257729
0.0647784
0.0262539
0.0676312
0.0267278
0.0705601
0.0271957
0.073553
0.0276642
0.0765992
0.0281518
0.0796931
0.0286689
0.0828324
0.0292222
0.0860189
0.0298004
0.0892535
0.030386
0.0925351
0.030955
0.0958564
0.0314963
0.0992056
0.0320018
0.102567
0.03247
0.105925
0.0329069
0.109261
0.0333239
0.11256
0.0337281
0.115805
0.0341303
0.118977
0.0345277
0.122051
0.0349313
0.125004
0.0353383
0.127799
0.0357152
0.130398
0.0360558
0.132762
0.0363474
0.134883
0.0366284
0.136824
0.0370016
0.138607
0.037422
0.140157
0.0377127
0.141267
0.0378394
0.141482
0.0378413
0.141345
0.0377815
0.140611
0.0377692
0.139482
0.0379097
0.1381
0.0380167
0.13649
0.0379521
0.134636
0.0377648
0.13257
0.0375195
0.130337
0.0372494
0.128006
0.0370105
0.125655
0.0367854
0.123341
0.0365319
0.121095
0.0362607
0.118942
0.0359587
0.116893
0.0356193
0.114959
0.035271
0.113175
0.034891
0.111594
0.0345302
0.110291
0.0341847
0.109338
0.0338831
0.108845
0.0336316
0.108844
0.0333859
0.109102
0.0331635
0.109819
0.0330065
0.111166
0.0329721
0.113247
0.0329142
0.116069
0.0328987
0.119615
0.0329645
0.123884
0.0330591
0.128866
0.0333183
0.134562
0.0336239
0.140933
0.0338213
0.147912
0.0341213
0.155432
0.0345258
0.163403
0.034905
0.171712
0.0354528
0.180257
0.036189
0.188884
0.0368872
0.197183
0.0377094
0.204035
0.0386764
0.207487
0.0396693
0.208034
0.0409822
0.20187
0.0424549
0.185237
0.0442203
0.157351
0.0465048
0.123209
0.0492453
0.0910402
0.052211
0.0666688
0.0552415
0.0518194
0.0581956
0.0454528
0.0612771
0.0447543
0.063857
0.051228
0.066589
0.0617413
0.069007
0.0744514
0.0715711
0.0895174
0.0742596
0.10733
0.0747787
0.128139
0.0811557
0.152992
0.0835003
0.182528
0.0847329
0.217644
0.0839106
0.259656
0.0825114
0.309848
0.0811705
0.369309
0.0813528
0.437339
0.0810865
0.511704
0.0816586
0.590575
0.0821075
0.672953
0.0836293
0.758834
0.0859116
0.850652
0.0898497
0.952565
0.0949739
1.06484
0.10013
1.19111
0.10551
1.33897
0.11131
1.51849
0.119555
1.73948
0.129837
2.01182
0.14077
2.3419
0.151304
2.73309
0.164465
3.19282
0.179819
3.72114
0.196232
4.31684
0.211583
4.99279
0.22923
0.256002
0.00166969
0.00876561
0.00296301
0.0115719
0.00418707
0.0110557
0.00544982
0.0103473
0.00679379
0.0103446
0.00812554
0.0104628
0.0094264
0.0105729
0.0106865
0.0106865
0.0119099
0.0108802
0.0131069
0.011129
0.0142866
0.0113886
0.0154589
0.0116433
0.0166325
0.0118941
0.0178076
0.0121343
0.0189894
0.0124188
0.0201833
0.0126175
0.0213623
0.0128318
0.0225235
0.0130891
0.0236571
0.0133332
0.0247505
0.0135907
0.0257959
0.0138408
0.0267838
0.0140881
0.0277089
0.0143468
0.0285689
0.0146106
0.0293605
0.0148923
0.0300837
0.0151683
0.0307359
0.0154659
0.031316
0.015735
0.0318248
0.016036
0.0322631
0.0162911
0.032636
0.016601
0.0329575
0.016914
0.033242
0.0172764
0.0335145
0.0176652
0.0337933
0.0180753
0.0340981
0.0185215
0.0344514
0.0190129
0.0348761
0.0195532
0.0353936
0.0201288
0.0360238
0.0207347
0.0367863
0.0213557
0.0376948
0.0219809
0.0387572
0.0225929
0.0399746
0.0231824
0.041345
0.0237445
0.0428645
0.0242806
0.0445287
0.0247993
0.046333
0.0253097
0.0482735
0.0258203
0.0503463
0.0263321
0.0525468
0.0268442
0.0548698
0.0273558
0.0573098
0.027875
0.0598619
0.0284094
0.0625204
0.0289585
0.0652767
0.0295128
0.0681199
0.0300624
0.0710368
0.0306089
0.0740158
0.0311571
0.0770477
0.0317232
0.0801285
0.032313
0.0832571
0.0329324
0.0864351
0.0335694
0.089662
0.0342107
0.0929348
0.0348345
0.0962444
0.0354337
0.0995787
0.0359992
0.102922
0.0365293
0.106261
0.0370263
0.109581
0.0375008
0.112869
0.0379592
0.116111
0.0384127
0.119289
0.0388607
0.122384
0.0393143
0.125371
0.0397692
0.128217
0.0401991
0.130879
0.0406002
0.133314
0.0409582
0.135505
0.0412889
0.13748
0.0416459
0.139246
0.0420022
0.140749
0.0422528
0.141822
0.0423994
0.142007
0.0424542
0.141862
0.0424588
0.141185
0.042511
0.140136
0.0426101
0.138799
0.0426124
0.137191
0.042462
0.135322
0.0422233
0.13323
0.0419302
0.130968
0.0416003
0.128609
0.0412721
0.126226
0.0409298
0.12387
0.0405517
0.121574
0.0401639
0.119367
0.0397487
0.117267
0.0393049
0.115291
0.0388669
0.113481
0.0384057
0.111895
0.0379788
0.1106
0.0375845
0.109668
0.0372498
0.109224
0.0369738
0.109248
0.0367164
0.109554
0.036498
0.110316
0.0363687
0.111705
0.0363566
0.113821
0.0363207
0.116669
0.0363621
0.120243
0.0365021
0.124545
0.0366726
0.12957
0.0370121
0.135311
0.0373972
0.14172
0.0377028
0.148736
0.0381361
0.156298
0.0386791
0.164309
0.0392099
0.172666
0.0399006
0.181259
0.0407617
0.189907
0.0415912
0.198191
0.0425523
0.20499
0.0436731
0.208353
0.0448656
0.208867
0.0463967
0.202619
0.0481102
0.185854
0.0501857
0.157877
0.0528513
0.123745
0.0560401
0.0917238
0.0594684
0.0676058
0.0629344
0.0530365
0.0662818
0.0469861
0.0697666
0.046501
0.0726803
0.0532826
0.0758016
0.0640039
0.0786308
0.076823
0.081573
0.0919426
0.0846494
0.109805
0.0854635
0.130745
0.0924311
0.155668
0.0948093
0.185214
0.0961171
0.220371
0.0952748
0.262611
0.0937073
0.313168
0.092351
0.372899
0.0923921
0.440975
0.0920769
0.515526
0.0924554
0.594638
0.0926607
0.677088
0.0945115
0.763045
0.0971721
0.855134
0.101569
0.95721
0.107281
1.06972
0.113663
1.1968
0.120282
1.34569
0.126845
1.52622
0.135127
1.74842
0.14562
2.02121
0.158099
2.35226
0.170497
2.74583
0.18435
3.20604
0.2016
3.73674
0.220903
4.33452
0.242933
5.01358
0.260512
0.291332
0.00166922
0.00968961
0.003001
0.0128399
0.00426364
0.0123782
0.00554714
0.0116379
0.00691168
0.0115518
0.00826909
0.0116569
0.00959667
0.0117759
0.0108802
0.0119099
0.0121217
0.0121217
0.0133329
0.0123797
0.0145234
0.012645
0.0157042
0.012903
0.0168835
0.0131581
0.0180625
0.013409
0.0192512
0.0136974
0.0204499
0.0138982
0.0216322
0.0141358
0.0227997
0.0144058
0.0239402
0.0146645
0.0250423
0.0149384
0.0260973
0.015205
0.0270952
0.0154723
0.0280305
0.0157518
0.0289008
0.0160358
0.0297027
0.0163391
0.0304366
0.0166362
0.0311002
0.0169581
0.0316931
0.0172557
0.0322168
0.0175892
0.0326715
0.0178867
0.0330643
0.0182453
0.0334097
0.0186092
0.0337227
0.0190286
0.0340263
0.0194721
0.0343364
0.0199431
0.034672
0.0204518
0.0350551
0.0210035
0.0355073
0.0216013
0.0360496
0.0222315
0.0367009
0.0228901
0.0374803
0.0235606
0.0384005
0.0242354
0.0394696
0.024899
0.0406896
0.0255442
0.0420601
0.0261646
0.0435789
0.0267604
0.0452426
0.0273386
0.0470477
0.0279077
0.0489897
0.0284763
0.0510641
0.0290459
0.0532647
0.0296182
0.0555854
0.0301931
0.05802
0.0307792
0.0605643
0.0313824
0.063213
0.0320017
0.0659585
0.0326284
0.0687901
0.0332531
0.0716951
0.033878
0.0746631
0.0345043
0.0776858
0.0351457
0.0807603
0.0358034
0.0838854
0.0364831
0.0870616
0.0371731
0.0902865
0.0378655
0.0935555
0.0385412
0.0968592
0.0391966
0.100186
0.0398208
0.103522
0.0404121
0.106854
0.0409684
0.110169
0.0414987
0.113456
0.0420085
0.116703
0.0425092
0.119892
0.0430023
0.123005
0.0434981
0.12602
0.0439913
0.1289
0.0444626
0.131608
0.0449091
0.134101
0.045318
0.136351
0.0456914
0.138353
0.0460524
0.140106
0.0463782
0.141573
0.0466143
0.1426
0.0467693
0.142756
0.0468472
0.142582
0.0468801
0.141924
0.0469337
0.140889
0.0469534
0.139531
0.0468457
0.137878
0.0465992
0.135961
0.0462764
0.133828
0.0458938
0.13154
0.0454559
0.129168
0.0449964
0.126776
0.044507
0.124409
0.0439846
0.122097
0.043463
0.119873
0.0429147
0.117759
0.0423494
0.115776
0.0418105
0.113971
0.0412668
0.1124
0.0407806
0.111124
0.0403528
0.11022
0.0400061
0.109832
0.0397257
0.10988
0.0394852
0.110229
0.0393041
0.111039
0.0392273
0.112472
0.0392633
0.114621
0.0392823
0.117495
0.0394132
0.121096
0.0396527
0.125428
0.0399217
0.130487
0.0403615
0.136259
0.0408508
0.142692
0.041293
0.149738
0.0418742
0.157339
0.042567
0.165392
0.0432643
0.173802
0.0441037
0.182448
0.0451016
0.191128
0.046085
0.19941
0.0472012
0.206182
0.0484923
0.209525
0.0498957
0.210034
0.0516527
0.203758
0.0536237
0.186903
0.0560229
0.158867
0.059069
0.124776
0.0626851
0.0929135
0.0665543
0.069007
0.070442
0.0546093
0.0741911
0.0487537
0.0780807
0.0484483
0.0813269
0.055442
0.0848734
0.0662932
0.0881354
0.0791719
0.0914838
0.0943201
0.0949492
0.112211
0.0961258
0.133255
0.103662
0.158226
0.106114
0.187839
0.107557
0.223144
0.106715
0.265676
0.104923
0.316617
0.1035
0.376744
0.103433
0.445216
0.103151
0.520185
0.103377
0.599482
0.103515
0.682042
0.105705
0.768317
0.10848
0.860901
0.113129
0.963251
0.119324
1.07603
0.126539
1.20339
0.134296
1.35323
0.14186
1.53483
0.150572
1.75795
0.16124
2.03136
0.174743
2.36271
0.189685
2.75841
0.20557
3.2205
0.223746
3.75279
0.245425
4.35538
0.271381
5.03782
0.296457
0.324084
0.0016498
0.0106467
0.00303601
0.0140719
0.0043685
0.0136467
0.00570239
0.0128969
0.0070981
0.0127407
0.00848184
0.0128322
0.00983037
0.0129568
0.011129
0.0131069
0.0123797
0.0133329
0.0135959
0.0135959
0.0147879
0.0138639
0.0159684
0.0141231
0.0171454
0.0143826
0.0183233
0.0146425
0.0195163
0.01493
0.0207173
0.0151361
0.0219041
0.0153954
0.0230809
0.0156737
0.0242322
0.0159454
0.0253471
0.0162329
0.0264149
0.0165152
0.0274251