/*--------------------------------*- C++ -*----------------------------------*\
  =========                 |
  \\      /  F ield         | OpenFOAM: The Open Source CFD Toolbox
   \\    /   O peration     | Website:  https://openfoam.org
    \\  /    A nd           | Version:  13
     \\/     M anipulation  |
\*---------------------------------------------------------------------------*/
FoamFile
{
    format      ascii;
    class       volScalarField;
    location    "0.0021";
    object      Qdot;
}
// * * * * * * * * * * * * * * * * * * * * * * * * * * * * * * * * * * * * * //

dimensions      [1 -1 -3 0 0 0 0];

internalField   nonuniform List<scalar> 
33334
(
-1.06802e-21
-1.07902e-21
-1.11635e-21
-1.20619e-21
-1.38909e-21
-1.72461e-21
-2.31112e-21
-3.32206e-21
-5.08596e-21
-8.2698e-21
-1.42937e-20
-2.62905e-20
-5.13976e-20
-1.0631e-19
-2.30827e-19
-5.21068e-19
-1.21049e-18
-2.8656e-18
-6.85216e-18
-1.64243e-17
-3.92233e-17
-9.29192e-17
-2.17795e-16
-5.04643e-16
-1.15657e-15
-2.62533e-15
-5.91326e-15
-1.32477e-14
-2.95647e-14
-6.57304e-14
-1.45374e-13
-3.1896e-13
-6.91564e-13
-1.47581e-12
-3.08878e-12
-6.32189e-12
-1.2626e-11
-2.45665e-11
-4.65086e-11
-8.55783e-11
-1.52893e-10
-2.64975e-10
-4.45121e-10
-7.2435e-10
-1.14134e-09
-1.74056e-09
-2.56786e-09
-3.66328e-09
-5.05378e-09
-6.75203e-09
-8.76854e-09
-1.1134e-08
-1.39e-08
-1.70516e-08
-2.03007e-08
-2.29977e-08
-2.46145e-08
-2.54591e-08
-2.59315e-08
-2.58258e-08
-2.49905e-08
-2.34751e-08
-2.14534e-08
-1.9137e-08
-1.67247e-08
-1.43858e-08
-1.22525e-08
-1.04109e-08
-8.8954e-09
-7.69447e-09
-6.76579e-09
-6.05498e-09
-5.50997e-09
-5.08822e-09
-4.75811e-09
-4.49717e-09
-4.28961e-09
-4.12391e-09
-3.99136e-09
-3.8835e-09
-3.79304e-09
-3.71026e-09
-3.62991e-09
-3.54724e-09
-3.46388e-09
-3.38378e-09
-3.30999e-09
-3.24115e-09
-3.1784e-09
-3.12012e-09
-3.06537e-09
-3.01444e-09
-2.96784e-09
-2.92567e-09
-2.88752e-09
-2.85299e-09
-2.82179e-09
-2.79368e-09
-2.76829e-09
-2.74504e-09
-2.72293e-09
-2.70052e-09
-2.67658e-09
-2.65122e-09
-2.62485e-09
-2.59446e-09
-2.56183e-09
-2.52814e-09
-2.49397e-09
-2.45926e-09
-2.42364e-09
-2.38679e-09
-2.34869e-09
-2.30961e-09
-2.2699e-09
-2.22943e-09
-2.18788e-09
-2.14488e-09
-2.10007e-09
-2.05335e-09
-2.00516e-09
-1.95693e-09
-1.91275e-09
-1.87927e-09
-1.85595e-09
-1.82943e-09
-1.80096e-09
-1.72848e-09
-1.5379e-09
-1.19207e-09
-7.67091e-10
-4.00554e-10
-1.68691e-10
-5.70852e-11
-1.52785e-11
-3.16494e-12
-4.94976e-13
-5.66305e-14
-4.65903e-15
-2.85851e-16
-3.41803e-17
-1.31914e-16
-5.80557e-15
-1.43989e-13
-2.02135e-12
-2.09533e-11
-2.15816e-10
-2.21104e-09
-1.59295e-08
-6.83028e-08
-1.80502e-07
-3.12949e-07
-3.85942e-07
-3.9791e-07
-4.9094e-07
-7.7657e-07
-1.49752e-06
-6.74202e-06
0.000415304
0.00476263
0.0777396
5.51324
17.827
4439.16
2.89155e+06
0
-1.07902e-21
-1.08989e-21
-1.12784e-21
-1.21881e-21
-1.40273e-21
-1.73907e-21
-2.32533e-21
-3.33426e-21
-5.09458e-21
-8.27204e-21
-1.42811e-20
-2.62438e-20
-5.1275e-20
-1.06021e-19
-2.30168e-19
-5.19555e-19
-1.20693e-18
-2.85694e-18
-6.83053e-18
-1.63694e-17
-3.90838e-17
-9.25692e-17
-2.16934e-16
-5.02478e-16
-1.1503e-15
-2.6059e-15
-5.85775e-15
-1.30995e-14
-2.91866e-14
-6.48009e-14
-1.43156e-13
-3.13821e-13
-6.79935e-13
-1.45032e-12
-3.035e-12
-6.21286e-12
-1.24131e-11
-2.41647e-11
-4.57751e-11
-8.42844e-11
-1.50701e-10
-2.61386e-10
-4.39437e-10
-7.15639e-10
-1.12844e-09
-1.72217e-09
-2.54275e-09
-3.63065e-09
-5.01358e-09
-6.70484e-09
-8.71467e-09
-1.1072e-08
-1.38266e-08
-1.69661e-08
-2.02137e-08
-2.29325e-08
-2.46007e-08
-2.54767e-08
-2.59655e-08
-2.5895e-08
-2.51032e-08
-2.36265e-08
-2.16299e-08
-1.9323e-08
-1.69065e-08
-1.4553e-08
-1.23983e-08
-1.05321e-08
-8.99211e-09
-7.76929e-09
-6.82261e-09
-6.09781e-09
-5.54231e-09
-5.11276e-09
-4.77673e-09
-4.51132e-09
-4.3004e-09
-4.13227e-09
-3.99786e-09
-3.8875e-09
-3.79566e-09
-3.71096e-09
-3.62383e-09
-3.53986e-09
-3.45292e-09
-3.36837e-09
-3.28784e-09
-3.21721e-09
-3.15444e-09
-3.09839e-09
-3.04819e-09
-3.0026e-09
-2.96067e-09
-2.92141e-09
-2.88466e-09
-2.8506e-09
-2.81936e-09
-2.79098e-09
-2.76522e-09
-2.7416e-09
-2.71912e-09
-2.69645e-09
-2.67242e-09
-2.64678e-09
-2.62e-09
-2.58979e-09
-2.55657e-09
-2.52221e-09
-2.48752e-09
-2.45235e-09
-2.41621e-09
-2.37886e-09
-2.34014e-09
-2.30027e-09
-2.25959e-09
-2.21806e-09
-2.17553e-09
-2.13188e-09
-2.08672e-09
-2.03993e-09
-1.99203e-09
-1.94422e-09
-1.90017e-09
-1.8665e-09
-1.84458e-09
-1.81774e-09
-1.78976e-09
-1.71929e-09
-1.53279e-09
-1.19161e-09
-7.69459e-10
-4.03297e-10
-1.70524e-10
-5.79326e-11
-1.56258e-11
-3.25581e-12
-5.11872e-13
-5.88297e-14
-4.85751e-15
-2.98173e-16
-3.49574e-17
-1.29768e-16
-5.74625e-15
-1.43943e-13
-2.02809e-12
-2.08464e-11
-2.0636e-10
-2.02079e-09
-1.42967e-08
-6.13481e-08
-1.63604e-07
-2.8918e-07
-3.67047e-07
-3.91385e-07
-4.93738e-07
-7.82273e-07
-1.88656e-06
-4.94025e-06
0.000411898
0.00217203
0.104696
4.50331
18.1079
4043.54
2.14261e+06
0
-1.11635e-21
-1.12784e-21
-1.1667e-21
-1.26069e-21
-1.44993e-21
-1.7943e-21
-2.39142e-21
-3.41554e-21
-5.20148e-21
-8.4259e-21
-1.45213e-20
-2.66493e-20
-5.20166e-20
-1.07481e-19
-2.3322e-19
-5.26193e-19
-1.22166e-18
-2.88984e-18
-6.90368e-18
-1.65301e-17
-3.94306e-17
-9.32961e-17
-2.18375e-16
-5.05005e-16
-1.15364e-15
-2.60756e-15
-5.84922e-15
-1.30561e-14
-2.90441e-14
-6.44044e-14
-1.42116e-13
-3.11057e-13
-6.73111e-13
-1.43478e-12
-3.00226e-12
-6.14862e-12
-1.22952e-11
-2.39612e-11
-4.54407e-11
-8.37525e-11
-1.49862e-10
-2.60114e-10
-4.37597e-10
-7.13111e-10
-1.12518e-09
-1.71835e-09
-2.53894e-09
-3.62817e-09
-5.01469e-09
-6.71259e-09
-8.73205e-09
-1.11006e-08
-1.38658e-08
-1.70177e-08
-2.02969e-08
-2.30985e-08
-2.48953e-08
-2.58524e-08
-2.63759e-08
-2.63629e-08
-2.56332e-08
-2.42015e-08
-2.22183e-08
-1.98911e-08
-1.74277e-08
-1.5011e-08
-1.27858e-08
-1.08496e-08
-9.24603e-09
-7.96931e-09
-6.97938e-09
-6.2211e-09
-5.63998e-09
-5.19069e-09
-4.83923e-09
-4.56156e-09
-4.34077e-09
-4.16452e-09
-4.02312e-09
-3.90755e-09
-3.81055e-09
-3.72349e-09
-3.63629e-09
-3.54864e-09
-3.46293e-09
-3.38694e-09
-3.31662e-09
-3.24956e-09
-3.18792e-09
-3.12958e-09
-3.07424e-09
-3.02192e-09
-2.97327e-09
-2.92902e-09
-2.88932e-09
-2.85372e-09
-2.82173e-09
-2.79298e-09
-2.76707e-09
-2.74341e-09
-2.72096e-09
-2.69849e-09
-2.67486e-09
-2.64963e-09
-2.62317e-09
-2.59297e-09
-2.55939e-09
-2.52433e-09
-2.48867e-09
-2.4523e-09
-2.41478e-09
-2.37573e-09
-2.33487e-09
-2.29228e-09
-2.24825e-09
-2.20316e-09
-2.15728e-09
-2.11075e-09
-2.06349e-09
-2.01553e-09
-1.96725e-09
-1.91966e-09
-1.87614e-09
-1.843e-09
-1.82166e-09
-1.79588e-09
-1.7684e-09
-1.6998e-09
-1.51764e-09
-1.1826e-09
-7.66126e-10
-4.03152e-10
-1.71177e-10
-5.83852e-11
-1.58198e-11
-3.30711e-12
-5.21282e-13
-6.00389e-14
-4.96316e-15
-3.04568e-16
-3.53784e-17
-1.20336e-16
-5.26814e-15
-1.35971e-13
-1.98313e-12
-2.06334e-11
-1.95839e-10
-1.77125e-09
-1.18931e-08
-5.04682e-08
-1.36473e-07
-2.49975e-07
-3.34511e-07
-3.75671e-07
-4.87321e-07
-8.30964e-07
-1.38567e-06
-1.2178e-05
-1.74185e-05
0.0176746
0
6.27805
15.4576
4682.2
1.08818e+06
0
-1.20619e-21
-1.21881e-21
-1.26069e-21
-1.36415e-21
-1.57003e-21
-1.94189e-21
-2.58195e-21
-3.67333e-21
-5.56783e-21
-8.97748e-21
-1.54089e-20
-2.81822e-20
-5.48562e-20
-1.13089e-19
-2.44889e-19
-5.5141e-19
-1.27745e-18
-3.01472e-18
-7.1841e-18
-1.71574e-17
-4.08177e-17
-9.62915e-17
-2.24586e-16
-5.17246e-16
-1.17719e-15
-2.65332e-15
-5.93697e-15
-1.32213e-14
-2.93502e-14
-6.4964e-14
-1.43121e-13
-3.12844e-13
-6.76341e-13
-1.44093e-12
-3.01474e-12
-6.17545e-12
-1.23547e-11
-2.40929e-11
-4.57246e-11
-8.43379e-11
-1.51009e-10
-2.62261e-10
-4.41448e-10
-7.19754e-10
-1.13625e-09
-1.73621e-09
-2.56694e-09
-3.67084e-09
-5.07781e-09
-6.80282e-09
-8.85615e-09
-1.12645e-08
-1.40748e-08
-1.72835e-08
-2.06609e-08
-2.36399e-08
-2.56376e-08
-2.67112e-08
-2.72818e-08
-2.7328e-08
-2.66474e-08
-2.52328e-08
-2.32213e-08
-2.0821e-08
-1.82526e-08
-1.57152e-08
-1.33683e-08
-1.13196e-08
-9.6188e-09
-8.26267e-09
-7.21045e-09
-6.40436e-09
-5.78669e-09
-5.30912e-09
-4.93539e-09
-4.63982e-09
-4.40436e-09
-4.21574e-09
-4.06345e-09
-3.93871e-09
-3.83361e-09
-3.73989e-09
-3.65101e-09
-3.56129e-09
-3.47243e-09
-3.38831e-09
-3.31067e-09
-3.24173e-09
-3.18051e-09
-3.12483e-09
-3.07279e-09
-3.02381e-09
-2.97791e-09
-2.93532e-09
-2.896e-09
-2.85985e-09
-2.82685e-09
-2.79705e-09
-2.77025e-09
-2.74593e-09
-2.72305e-09
-2.7004e-09
-2.6768e-09
-2.65161e-09
-2.62503e-09
-2.59405e-09
-2.55921e-09
-2.52228e-09
-2.48418e-09
-2.44489e-09
-2.40399e-09
-2.36109e-09
-2.31596e-09
-2.26873e-09
-2.21977e-09
-2.16961e-09
-2.11892e-09
-2.06825e-09
-2.01789e-09
-1.96808e-09
-1.91915e-09
-1.87191e-09
-1.82935e-09
-1.79724e-09
-1.77651e-09
-1.75158e-09
-1.72454e-09
-1.65767e-09
-1.48046e-09
-1.15415e-09
-7.48157e-10
-3.94072e-10
-1.67575e-10
-5.72539e-11
-1.55276e-11
-3.24814e-12
-5.12251e-13
-5.90257e-14
-4.87959e-15
-2.99365e-16
-3.48436e-17
-1.06936e-16
-4.46525e-15
-1.20197e-13
-1.88411e-12
-2.0859e-11
-1.99061e-10
-1.70873e-09
-1.0934e-08
-4.5487e-08
-1.23268e-07
-2.30796e-07
-3.19679e-07
-3.67903e-07
-4.55258e-07
-6.48093e-07
-2.28612e-06
-2.73712e-07
0.00145276
0.00443756
0.571039
7.2165
15.8478
7996.97
692588
0
-1.38909e-21
-1.40273e-21
-1.44993e-21
-1.57003e-21
-1.80825e-21
-2.23753e-21
-2.97304e-21
-4.22065e-21
-6.37398e-21
-1.0229e-20
-1.74674e-20
-3.1782e-20
-6.15452e-20
-1.26228e-19
-2.71923e-19
-6.0906e-19
-1.40343e-18
-3.29415e-18
-7.80819e-18
-1.8551e-17
-4.39051e-17
-1.03013e-16
-2.38849e-16
-5.46683e-16
-1.2365e-15
-2.77055e-15
-6.16537e-15
-1.36613e-14
-3.01903e-14
-6.65599e-14
-1.46193e-13
-3.19087e-13
-6.89421e-13
-1.4687e-12
-3.07371e-12
-6.29969e-12
-1.26125e-11
-2.46167e-11
-4.67634e-11
-8.63483e-11
-1.54804e-10
-2.69166e-10
-4.53566e-10
-7.40335e-10
-1.17016e-09
-1.79052e-09
-2.65155e-09
-3.79897e-09
-5.266e-09
-7.07017e-09
-9.2229e-09
-1.17511e-08
-1.47044e-08
-1.80896e-08
-2.16946e-08
-2.49443e-08
-2.71852e-08
-2.83926e-08
-2.9019e-08
-2.91046e-08
-2.84212e-08
-2.69468e-08
-2.48155e-08
-2.22457e-08
-1.94786e-08
-1.6736e-08
-1.41964e-08
-1.19792e-08
-1.01394e-08
-8.67341e-09
-7.53667e-09
-6.66618e-09
-5.99903e-09
-5.48268e-09
-5.07785e-09
-4.75683e-09
-4.50018e-09
-4.29364e-09
-4.12581e-09
-3.98769e-09
-3.87058e-09
-3.76721e-09
-3.67205e-09
-3.57906e-09
-3.48758e-09
-3.40258e-09
-3.32439e-09
-3.25395e-09
-3.19098e-09
-3.13424e-09
-3.08237e-09
-3.03433e-09
-2.98947e-09
-2.94748e-09
-2.90832e-09
-2.87207e-09
-2.8389e-09
-2.80894e-09
-2.78203e-09
-2.7576e-09
-2.73463e-09
-2.71196e-09
-2.68839e-09
-2.66317e-09
-2.63623e-09
-2.60464e-09
-2.5684e-09
-2.52929e-09
-2.4883e-09
-2.44551e-09
-2.40061e-09
-2.35341e-09
-2.30383e-09
-2.25173e-09
-2.19753e-09
-2.14215e-09
-2.0866e-09
-2.03175e-09
-1.97822e-09
-1.92646e-09
-1.87682e-09
-1.83002e-09
-1.78877e-09
-1.75829e-09
-1.73903e-09
-1.7155e-09
-1.68946e-09
-1.62367e-09
-1.44891e-09
-1.12784e-09
-7.29502e-10
-3.83236e-10
-1.62511e-10
-5.53885e-11
-1.49866e-11
-3.13004e-12
-4.93001e-13
-5.67485e-14
-4.6877e-15
-2.87794e-16
-3.3948e-17
-1.00699e-16
-3.88251e-15
-1.04036e-13
-1.74065e-12
-2.13344e-11
-2.21051e-10
-1.94562e-09
-1.23626e-08
-5.05527e-08
-1.34068e-07
-2.45099e-07
-3.32441e-07
-3.72745e-07
-4.03063e-07
-7.93771e-07
-6.70513e-07
-1.75183e-05
0
0.025054
0.0814762
8.52442
60.4405
8038.85
552011
0
-1.72461e-21
-1.73907e-21
-1.7943e-21
-1.94189e-21
-2.23753e-21
-2.77203e-21
-3.68598e-21
-5.22966e-21
-7.87857e-21
-1.25898e-20
-2.13763e-20
-3.86305e-20
-7.42405e-20
-1.51026e-19
-3.22593e-19
-7.16356e-19
-1.63659e-18
-3.80946e-18
-8.95731e-18
-2.11178e-17
-4.96068e-17
-1.15529e-16
-2.65878e-16
-6.04009e-16
-1.35584e-15
-3.0148e-15
-6.65995e-15
-1.46584e-14
-3.22026e-14
-7.06468e-14
-1.54588e-13
-3.36562e-13
-7.26276e-13
-1.54691e-12
-3.23925e-12
-6.64634e-12
-1.33255e-11
-2.60489e-11
-4.95617e-11
-9.1649e-11
-1.64517e-10
-2.86405e-10
-4.83247e-10
-7.89981e-10
-1.25091e-09
-1.91828e-09
-2.84805e-09
-4.09233e-09
-5.69039e-09
-7.66447e-09
-1.00296e-08
-1.28173e-08
-1.60855e-08
-1.98471e-08
-2.38707e-08
-2.75123e-08
-3.00314e-08
-3.13825e-08
-3.2073e-08
-3.21612e-08
-3.13886e-08
-2.97284e-08
-2.73301e-08
-2.44394e-08
-2.133e-08
-1.82545e-08
-1.54148e-08
-1.29439e-08
-1.09005e-08
-9.27706e-09
-8.02092e-09
-7.06e-09
-6.32333e-09
-5.75229e-09
-5.30333e-09
-4.94587e-09
-4.65855e-09
-4.4257e-09
-4.23501e-09
-4.0769e-09
-3.94274e-09
-3.82545e-09
-3.72002e-09
-3.62093e-09
-3.52509e-09
-3.43795e-09
-3.35813e-09
-3.28619e-09
-3.22212e-09
-3.16465e-09
-3.11248e-09
-3.06417e-09
-3.01904e-09
-2.97679e-09
-2.93737e-09
-2.90092e-09
-2.86768e-09
-2.83782e-09
-2.81111e-09
-2.78696e-09
-2.76428e-09
-2.7419e-09
-2.71854e-09
-2.69331e-09
-2.666e-09
-2.63352e-09
-2.59578e-09
-2.55456e-09
-2.51094e-09
-2.46519e-09
-2.41715e-09
-2.36637e-09
-2.31202e-09
-2.25449e-09
-2.19483e-09
-2.13439e-09
-2.07418e-09
-2.01531e-09
-1.95865e-09
-1.90479e-09
-1.85414e-09
-1.80746e-09
-1.76726e-09
-1.73839e-09
-1.72084e-09
-1.69902e-09
-1.67441e-09
-1.60959e-09
-1.43551e-09
-1.11574e-09
-7.19988e-10
-3.77093e-10
-1.5934e-10
-5.40944e-11
-1.45704e-11
-3.03087e-12
-4.75628e-13
-5.45648e-14
-4.49627e-15
-2.76345e-16
-3.33985e-17
-1.03102e-16
-3.71908e-15
-9.58792e-14
-1.64205e-12
-2.20994e-11
-2.59355e-10
-2.45223e-09
-1.5803e-08
-6.39252e-08
-1.63205e-07
-2.78858e-07
-3.56118e-07
-3.94611e-07
-4.51052e-07
-5.30751e-07
-3.20344e-06
-2.91025e-06
0.00173828
0.0188096
0
44.7315
0
19052.2
484480
0
-2.31112e-21
-2.32533e-21
-2.39142e-21
-2.58195e-21
-2.97304e-21
-3.68598e-21
-4.90501e-21
-6.95659e-21
-1.04571e-20
-1.66392e-20
-2.80758e-20
-5.03348e-20
-9.5834e-20
-1.92956e-19
-4.07726e-19
-8.95573e-19
-2.02415e-18
-4.66289e-18
-1.08555e-17
-2.53514e-17
-5.90147e-17
-1.36256e-16
-3.11002e-16
-7.00926e-16
-1.5611e-15
-3.44426e-15
-7.55171e-15
-1.65068e-14
-3.60472e-14
-7.87012e-14
-1.71594e-13
-3.72653e-13
-8.03043e-13
-1.70978e-12
-3.58181e-12
-7.35616e-12
-1.47664e-11
-2.89019e-11
-5.50545e-11
-1.01914e-10
-1.83136e-10
-3.19207e-10
-5.39416e-10
-8.83518e-10
-1.40241e-09
-2.15678e-09
-3.21248e-09
-4.63188e-09
-6.46342e-09
-8.73668e-09
-1.1474e-08
-1.47183e-08
-1.85421e-08
-2.29561e-08
-2.76618e-08
-3.18671e-08
-3.47156e-08
-3.62242e-08
-3.69904e-08
-3.70315e-08
-3.60533e-08
-3.40364e-08
-3.11689e-08
-2.77479e-08
-2.40967e-08
-2.05092e-08
-1.72168e-08
-1.43689e-08
-1.20267e-08
-1.01746e-08
-8.74632e-09
-7.65566e-09
-6.81959e-09
-6.17052e-09
-5.65875e-09
-5.24953e-09
-4.91872e-09
-4.64865e-09
-4.42587e-09
-4.24008e-09
-4.0827e-09
-3.94711e-09
-3.8283e-09
-3.71924e-09
-3.61658e-09
-3.52463e-09
-3.44081e-09
-3.36501e-09
-3.29729e-09
-3.23693e-09
-3.1828e-09
-3.13334e-09
-3.08737e-09
-3.04423e-09
-3.00378e-09
-2.96629e-09
-2.93222e-09
-2.90182e-09
-2.87486e-09
-2.85069e-09
-2.82815e-09
-2.80588e-09
-2.78235e-09
-2.75647e-09
-2.72785e-09
-2.69298e-09
-2.65191e-09
-2.60654e-09
-2.55818e-09
-2.50735e-09
-2.4541e-09
-2.39797e-09
-2.33835e-09
-2.27589e-09
-2.21139e-09
-2.14565e-09
-2.08051e-09
-2.01756e-09
-1.95767e-09
-1.9015e-09
-1.8495e-09
-1.8025e-09
-1.76294e-09
-1.73537e-09
-1.71936e-09
-1.69923e-09
-1.67597e-09
-1.61167e-09
-1.43682e-09
-1.11536e-09
-7.18312e-10
-3.75265e-10
-1.58101e-10
-5.34953e-11
-1.43485e-11
-2.97307e-12
-4.64786e-13
-5.31179e-14
-4.36341e-15
-2.684e-16
-3.33127e-17
-1.13844e-16
-4.02024e-15
-1.00133e-13
-1.69578e-12
-2.3593e-11
-2.94017e-10
-2.89412e-09
-1.89129e-08
-7.62062e-08
-1.90455e-07
-3.10465e-07
-3.76947e-07
-4.24402e-07
-4.92458e-07
-9.16357e-07
-9.09436e-07
-2.36972e-05
0.000272467
0.0108847
0.580527
1.14455
48.7886
6006.21
472429
0
-3.32206e-21
-3.33426e-21
-3.41554e-21
-3.67333e-21
-4.22065e-21
-5.22966e-21
-6.95659e-21
-9.85181e-21
-1.47607e-20
-2.33622e-20
-3.91315e-20
-6.95165e-20
-1.30956e-19
-2.6062e-19
-5.4406e-19
-1.18054e-18
-2.63652e-18
-6.00407e-18
-1.38252e-17
-3.19515e-17
-7.36512e-17
-1.68496e-16
-3.81333e-16
-8.52647e-16
-1.88479e-15
-4.12856e-15
-8.99034e-15
-1.95284e-14
-4.24122e-14
-9.21834e-14
-2.00298e-13
-4.33904e-13
-9.33503e-13
-1.98576e-12
-4.15876e-12
-8.54211e-12
-1.71533e-11
-3.35911e-11
-6.40272e-11
-1.18619e-10
-2.13381e-10
-3.72459e-10
-6.30592e-10
-1.03532e-09
-1.64804e-09
-2.54269e-09
-3.80015e-09
-5.49782e-09
-7.69712e-09
-1.04384e-08
-1.37562e-08
-1.77123e-08
-2.24011e-08
-2.78214e-08
-3.35535e-08
-3.85587e-08
-4.18213e-08
-4.35169e-08
-4.43797e-08
-4.43175e-08
-4.29915e-08
-4.04036e-08
-3.68104e-08
-3.25896e-08
-2.81351e-08
-2.37962e-08
-1.98438e-08
-1.64486e-08
-1.36741e-08
-1.14921e-08
-9.81612e-09
-8.53925e-09
-7.56108e-09
-6.8011e-09
-6.20065e-09
-5.71897e-09
-5.32786e-09
-5.00694e-09
-4.74099e-09
-4.51852e-09
-4.33067e-09
-4.17082e-09
-4.03334e-09
-3.90897e-09
-3.79449e-09
-3.69287e-09
-3.60102e-09
-3.51848e-09
-3.44533e-09
-3.38102e-09
-3.32417e-09
-3.27292e-09
-3.2256e-09
-3.18118e-09
-3.13936e-09
-3.10045e-09
-3.06502e-09
-3.0334e-09
-3.00538e-09
-2.98025e-09
-2.95669e-09
-2.93309e-09
-2.90755e-09
-2.87881e-09
-2.84623e-09
-2.80569e-09
-2.75745e-09
-2.70348e-09
-2.64543e-09
-2.58422e-09
-2.52021e-09
-2.45361e-09
-2.38498e-09
-2.31477e-09
-2.24345e-09
-2.17185e-09
-2.10155e-09
-2.03402e-09
-1.97039e-09
-1.91141e-09
-1.85758e-09
-1.80982e-09
-1.77046e-09
-1.74383e-09
-1.72906e-09
-1.71054e-09
-1.68843e-09
-1.62434e-09
-1.44764e-09
-1.12223e-09
-7.21128e-10
-3.75681e-10
-1.57773e-10
-5.32011e-11
-1.42107e-11
-2.934e-12
-4.5712e-13
-5.20595e-14
-4.2635e-15
-2.6249e-16
-3.3487e-17
-1.31932e-16
-4.8591e-15
-1.19264e-13
-1.95797e-12
-2.6266e-11
-3.19672e-10
-3.1414e-09
-2.04655e-08
-8.16072e-08
-2.02779e-07
-3.33533e-07
-4.09402e-07
-4.55451e-07
-5.96567e-07
-8.94262e-07
-3.98603e-06
-1.33909e-05
0.00104552
0.0461538
0
15.6072
0
19877.1
464700
0
-5.08596e-21
-5.09458e-21
-5.20148e-21
-5.56783e-21
-6.37398e-21
-7.87857e-21
-1.04571e-20
-1.47607e-20
-2.20033e-20
-3.45801e-20
-5.7404e-20
-1.00896e-19
-1.87802e-19
-3.68966e-19
-7.60079e-19
-1.62757e-18
-3.58827e-18
-8.07106e-18
-1.83677e-17
-4.19829e-17
-9.57807e-17
-2.17046e-16
-4.8695e-16
-1.08016e-15
-2.37023e-15
-5.15652e-15
-1.11573e-14
-2.4093e-14
-5.20498e-14
-1.12616e-13
-2.43769e-13
-5.26487e-13
-1.13008e-12
-2.39988e-12
-5.02038e-12
-1.0305e-11
-2.06879e-11
-4.05176e-11
-7.7269e-11
-1.43283e-10
-2.58098e-10
-4.51326e-10
-7.65848e-10
-1.26076e-09
-2.01298e-09
-3.1157e-09
-4.67136e-09
-6.7785e-09
-9.51652e-09
-1.2941e-08
-1.71037e-08
-2.20933e-08
-2.80324e-08
-3.48978e-08
-4.20878e-08
-4.82024e-08
-5.20063e-08
-5.39395e-08
-5.49325e-08
-5.47041e-08
-5.2857e-08
-4.94365e-08
-4.4804e-08
-3.94488e-08
-3.38596e-08
-2.84605e-08
-2.35772e-08
-1.94096e-08
-1.60243e-08
-1.33753e-08
-1.13487e-08
-9.80857e-09
-8.63022e-09
-7.71491e-09
-6.99125e-09
-6.40987e-09
-5.93682e-09
-5.54785e-09
-5.22503e-09
-4.95481e-09
-4.72704e-09
-4.53421e-09
-4.36934e-09
-4.22086e-09
-4.08623e-09
-3.9676e-09
-3.86174e-09
-3.76802e-09
-3.68624e-09
-3.61552e-09
-3.55409e-09
-3.49966e-09
-3.45007e-09
-3.40379e-09
-3.36015e-09
-3.31918e-09
-3.28135e-09
-3.24696e-09
-3.21575e-09
-3.18699e-09
-3.15924e-09
-3.13059e-09
-3.09887e-09
-3.06281e-09
-3.02161e-09
-2.97077e-09
-2.91095e-09
-2.84424e-09
-2.77262e-09
-2.69737e-09
-2.61926e-09
-2.53876e-09
-2.45673e-09
-2.37416e-09
-2.29202e-09
-2.21176e-09
-2.13414e-09
-2.06062e-09
-1.99231e-09
-1.92982e-09
-1.87362e-09
-1.82463e-09
-1.78508e-09
-1.75902e-09
-1.74525e-09
-1.728e-09
-1.70678e-09
-1.64245e-09
-1.46284e-09
-1.13192e-09
-7.25284e-10
-3.76534e-10
-1.57524e-10
-5.28981e-11
-1.4065e-11
-2.89276e-12
-4.49068e-13
-5.09581e-14
-4.16046e-15
-2.56536e-16
-3.38309e-17
-1.51662e-16
-5.88533e-15
-1.45221e-13
-2.32919e-12
-2.98058e-11
-3.49374e-10
-3.39484e-09
-2.19261e-08
-8.60139e-08
-2.12221e-07
-3.5913e-07
-4.68898e-07
-5.41567e-07
-6.7553e-07
-1.50609e-06
-2.05326e-06
0.000295406
0.00204401
0
2.38996
7.55096
139.18
24175
467774
2.46697e+08
-8.2698e-21
-8.27204e-21
-8.4259e-21
-8.97748e-21
-1.0229e-20
-1.25898e-20
-1.66392e-20
-2.33622e-20
-3.45801e-20
-5.38573e-20
-8.8434e-20
-1.53496e-19
-2.81783e-19
-5.45572e-19
-1.10729e-18
-2.33636e-18
-5.07799e-18
-1.12679e-17
-2.5317e-17
-5.718e-17
-1.29018e-16
-2.89416e-16
-6.43338e-16
-1.41509e-15
-3.08133e-15
-6.65597e-15
-1.43065e-14
-3.07029e-14
-6.59523e-14
-1.41962e-13
-3.05905e-13
-6.58161e-13
-1.40831e-12
-2.98351e-12
-6.23044e-12
-1.27747e-11
-2.56337e-11
-5.02099e-11
-9.58177e-11
-1.77893e-10
-3.20981e-10
-5.62472e-10
-9.56814e-10
-1.57949e-09
-2.52927e-09
-3.92634e-09
-5.90315e-09
-8.58725e-09
-1.20825e-08
-1.64646e-08
-2.1809e-08
-2.82381e-08
-3.5908e-08
-4.47584e-08
-5.39388e-08
-6.15577e-08
-6.60816e-08
-6.83287e-08
-6.94982e-08
-6.90249e-08
-6.64395e-08
-6.18656e-08
-5.58098e-08
-4.89049e-08
-4.1763e-08
-3.49102e-08
-2.87479e-08
-2.35166e-08
-1.92875e-08
-1.59917e-08
-1.34784e-08
-1.15731e-08
-1.01178e-08
-8.98867e-09
-8.09656e-09
-7.38e-09
-6.79695e-09
-6.31762e-09
-5.91999e-09
-5.58722e-09
-5.30653e-09
-5.06854e-09
-4.86428e-09
-4.68021e-09
-4.51444e-09
-4.36917e-09
-4.24109e-09
-4.12945e-09
-4.03358e-09
-3.95194e-09
-3.8821e-09
-3.82121e-09
-3.7665e-09
-3.71586e-09
-3.668e-09
-3.62246e-09
-3.57933e-09
-3.5387e-09
-3.50029e-09
-3.46331e-09
-3.42625e-09
-3.38697e-09
-3.34319e-09
-3.29386e-09
-3.23813e-09
-3.17125e-09
-3.09464e-09
-3.01062e-09
-2.92151e-09
-2.82897e-09
-2.73418e-09
-2.63807e-09
-2.54168e-09
-2.44548e-09
-2.35014e-09
-2.25839e-09
-2.17189e-09
-2.09147e-09
-2.01782e-09
-1.9513e-09
-1.89228e-09
-1.84165e-09
-1.8015e-09
-1.77551e-09
-1.76212e-09
-1.74544e-09
-1.72436e-09
-1.65891e-09
-1.47557e-09
-1.13891e-09
-7.27292e-10
-3.761e-10
-1.56676e-10
-5.23734e-11
-1.38562e-11
-2.83781e-12
-4.38755e-13
-4.95907e-14
-4.03542e-15
-2.4945e-16
-3.4322e-17
-1.72661e-16
-6.74373e-15
-1.64416e-13
-2.61903e-12
-3.36774e-11
-4.00818e-10
-3.91965e-09
-2.50277e-08
-9.64879e-08
-2.35369e-07
-4.03052e-07
-5.51237e-07
-6.8374e-07
-9.16358e-07
-1.67726e-06
-8.44867e-06
-1.3501e-05
0.00613166
0.0709959
0
151.897
0
77705.3
380589
1.47029e+09
-1.42937e-20
-1.42811e-20
-1.45213e-20
-1.54089e-20
-1.74674e-20
-2.13763e-20
-2.80758e-20
-3.91315e-20
-5.7404e-20
-8.8434e-20
-1.43346e-19
-2.45175e-19
-4.42903e-19
-8.43143e-19
-1.68214e-18
-3.4898e-18
-7.46259e-18
-1.63063e-17
-3.61134e-17
-8.04825e-17
-1.79377e-16
-3.97877e-16
-8.75383e-16
-1.90746e-15
-4.11762e-15
-8.82318e-15
-1.88223e-14
-4.0109e-14
-8.55887e-14
-1.83111e-13
-3.92433e-13
-8.4038e-13
-1.79129e-12
-3.78353e-12
-7.88441e-12
-1.61452e-11
-3.23811e-11
-6.3441e-11
-1.21173e-10
-2.25289e-10
-4.07262e-10
-7.15259e-10
-1.21974e-09
-2.01881e-09
-3.24141e-09
-5.04482e-09
-7.60249e-09
-1.10814e-08
-1.56177e-08
-2.13137e-08
-2.82742e-08
-3.66638e-08
-4.66748e-08
-5.81859e-08
-7.00167e-08
-7.96414e-08
-8.51287e-08
-8.77967e-08
-8.91967e-08
-8.83645e-08
-8.47597e-08
-7.86305e-08
-7.06695e-08
-6.1688e-08
-5.24593e-08
-4.36487e-08
-3.57606e-08
-2.90905e-08
-2.37166e-08
-1.95405e-08
-1.63634e-08
-1.39597e-08
-1.21275e-08
-1.07085e-08
-9.58908e-09
-8.69123e-09
-7.96153e-09
-7.36235e-09
-6.86581e-09
-6.45032e-09
-6.09922e-09
-5.80028e-09
-5.54218e-09
-5.30926e-09
-5.09999e-09
-4.91717e-09
-4.75726e-09
-4.61921e-09
-4.50166e-09
-4.40223e-09
-4.31765e-09
-4.24433e-09
-4.17885e-09
-4.11835e-09
-4.06089e-09
-4.00534e-09
-3.95137e-09
-3.89881e-09
-3.84735e-09
-3.79613e-09
-3.74356e-09
-3.68733e-09
-3.62513e-09
-3.55648e-09
-3.48028e-09
-3.39163e-09
-3.2931e-09
-3.18719e-09
-3.07657e-09
-2.96333e-09
-2.84911e-09
-2.73523e-09
-2.62185e-09
-2.51014e-09
-2.40246e-09
-2.30067e-09
-2.20609e-09
-2.11891e-09
-2.03985e-09
-1.96913e-09
-1.90704e-09
-1.85442e-09
-1.81317e-09
-1.78647e-09
-1.77243e-09
-1.75524e-09
-1.73336e-09
-1.66625e-09
-1.47949e-09
-1.13869e-09
-7.24571e-10
-3.7321e-10
-1.5481e-10
-5.15115e-11
-1.35591e-11
-2.76454e-12
-4.25529e-13
-4.78856e-14
-3.88262e-15
-2.40894e-16
-3.49537e-17
-2.00676e-16
-7.70395e-15
-1.82367e-13
-2.88097e-12
-3.78942e-11
-4.68888e-10
-4.66817e-09
-2.96369e-08
-1.13188e-07
-2.74507e-07
-4.66036e-07
-6.34405e-07
-8.14045e-07
-1.17666e-06
-2.46096e-06
-6.19285e-06
0.000585852
0
0.157051
0.633027
17.9854
0
51552.4
439954
3.22971e+09
-2.62905e-20
-2.62438e-20
-2.66493e-20
-2.81822e-20
-3.1782e-20
-3.86305e-20
-5.03348e-20
-6.95165e-20
-1.00896e-19
-1.53496e-19
-2.45175e-19
-4.12367e-19
-7.31326e-19
-1.36537e-18
-2.6706e-18
-5.43325e-18
-1.14021e-17
-2.44759e-17
-5.33162e-17
-1.17016e-16
-2.57159e-16
-5.63108e-16
-1.22439e-15
-2.6392e-15
-5.64036e-15
-1.19734e-14
-2.53187e-14
-5.35059e-14
-1.13291e-13
-2.40651e-13
-5.12458e-13
-1.09138e-12
-2.31583e-12
-4.87453e-12
-1.01332e-11
-2.072e-11
-4.15337e-11
-8.13926e-11
-1.55603e-10
-2.89719e-10
-5.24701e-10
-9.23466e-10
-1.57838e-09
-2.61854e-09
-4.214e-09
-6.57262e-09
-9.92353e-09
-1.44866e-08
-2.04407e-08
-2.7921e-08
-3.70692e-08
-4.81019e-08
-6.12486e-08
-7.62878e-08
-9.16e-08
-1.03866e-07
-1.10647e-07
-1.13882e-07
-1.15558e-07
-1.14192e-07
-1.092e-07
-1.01e-07
-9.05085e-08
-7.87626e-08
-6.67521e-08
-5.53299e-08
-4.51377e-08
-3.65431e-08
-2.96337e-08
-2.42737e-08
-2.02023e-08
-1.71272e-08
-1.47876e-08
-1.29795e-08
-1.15563e-08
-1.04169e-08
-9.49243e-09
-8.7344e-09
-8.10683e-09
-7.58176e-09
-7.13745e-09
-6.75803e-09
-6.42935e-09
-6.13259e-09
-5.86687e-09
-5.63498e-09
-5.4328e-09
-5.25864e-09
-5.11021e-09
-4.98402e-09
-4.87585e-09
-4.78128e-09
-4.69615e-09
-4.61694e-09
-4.54111e-09
-4.46703e-09
-4.39402e-09
-4.32179e-09
-4.24991e-09
-4.17742e-09
-4.10256e-09
-4.02279e-09
-3.93596e-09
-3.84232e-09
-3.73961e-09
-3.6241e-09
-3.49886e-09
-3.36675e-09
-3.23087e-09
-3.09372e-09
-2.95731e-09
-2.82268e-09
-2.6905e-09
-2.56352e-09
-2.44416e-09
-2.33263e-09
-2.22946e-09
-2.13544e-09
-2.05104e-09
-1.97619e-09
-1.91102e-09
-1.85626e-09
-1.81365e-09
-1.78577e-09
-1.77036e-09
-1.75216e-09
-1.72937e-09
-1.66084e-09
-1.47191e-09
-1.12965e-09
-7.1634e-10
-3.67576e-10
-1.51855e-10
-5.03041e-11
-1.31754e-11
-2.67389e-12
-4.09624e-13
-4.58745e-14
-3.70464e-15
-2.30931e-16
-3.56075e-17
-2.40171e-16
-9.38451e-15
-2.18865e-13
-3.37837e-12
-4.32959e-11
-5.2524e-10
-5.19941e-09
-3.3163e-08
-1.27145e-07
-3.08331e-07
-5.21227e-07
-7.04233e-07
-9.01374e-07
-1.19852e-06
-2.92626e-06
-1.10132e-05
0
0.0146778
0
6.27053
17.7362
0
113820
403326
6.05675e+09
-5.13976e-20
-5.1275e-20
-5.20166e-20
-5.48562e-20
-6.15452e-20
-7.42405e-20
-9.5834e-20
-1.30956e-19
-1.87802e-19
-2.81783e-19
-4.42903e-19
-7.31326e-19
-1.27072e-18
-2.32117e-18
-4.4394e-18
-8.83273e-18
-1.81412e-17
-3.81554e-17
-8.15453e-17
-1.75846e-16
-3.80242e-16
-8.2038e-16
-1.75972e-15
-3.74599e-15
-7.91335e-15
-1.66171e-14
-3.47804e-14
-7.2796e-14
-1.52753e-13
-3.21802e-13
-6.80234e-13
-1.43956e-12
-3.03886e-12
-6.37089e-12
-1.32064e-11
-2.69565e-11
-5.39928e-11
-1.05814e-10
-2.02436e-10
-3.77385e-10
-6.84565e-10
-1.20702e-09
-2.06703e-09
-3.43586e-09
-5.53963e-09
-8.65485e-09
-1.30859e-08
-1.91236e-08
-2.70022e-08
-3.6898e-08
-4.89972e-08
-6.35811e-08
-8.09174e-08
-1.00626e-07
-1.20487e-07
-1.36193e-07
-1.44721e-07
-1.48726e-07
-1.50681e-07
-1.48528e-07
-1.41671e-07
-1.30718e-07
-1.16861e-07
-1.01437e-07
-8.57274e-08
-7.08349e-08
-5.75808e-08
-4.64258e-08
-3.74699e-08
-3.05286e-08
-2.52609e-08
-2.12872e-08
-1.82691e-08
-1.59417e-08
-1.41139e-08
-1.26538e-08
-1.14713e-08
-1.05032e-08
-9.70253e-09
-9.03311e-09
-8.46671e-09
-7.98284e-09
-7.56394e-09
-7.18588e-09
-6.84994e-09
-6.55622e-09
-6.30002e-09
-6.07838e-09
-5.88769e-09
-5.72315e-09
-5.57943e-09
-5.45141e-09
-5.33432e-09
-5.22419e-09
-5.11816e-09
-5.01437e-09
-4.91201e-09
-4.81067e-09
-4.70972e-09
-4.60794e-09
-4.50327e-09
-4.39276e-09
-4.27459e-09
-4.15e-09
-4.01458e-09
-3.86696e-09
-3.71019e-09
-3.54768e-09
-3.38292e-09
-3.21882e-09
-3.05752e-09
-2.90002e-09
-2.74928e-09
-2.6069e-09
-2.47348e-09
-2.35042e-09
-2.23818e-09
-2.13711e-09
-2.0473e-09
-1.96837e-09
-1.90021e-09
-1.8434e-09
-1.79948e-09
-1.77053e-09
-1.75377e-09
-1.73483e-09
-1.71167e-09
-1.64253e-09
-1.45323e-09
-1.11239e-09
-7.031e-10
-3.59476e-10
-1.47927e-10
-4.87929e-11
-1.2717e-11
-2.56879e-12
-3.91569e-13
-4.36259e-14
-3.50748e-15
-2.19863e-16
-3.6161e-17
-2.86291e-16
-1.19455e-14
-2.8581e-13
-4.32932e-12
-5.16219e-11
-5.71813e-10
-5.41124e-09
-3.45171e-08
-1.34057e-07
-3.28016e-07
-5.54852e-07
-7.47237e-07
-9.48917e-07
-1.425e-06
-2.20264e-06
-1.30532e-05
0.000579893
0
0.398844
0
690.949
0
581058
0
1.1693e+10
-1.0631e-19
-1.06021e-19
-1.07481e-19
-1.13089e-19
-1.26228e-19
-1.51026e-19
-1.92956e-19
-2.6062e-19
-3.68966e-19
-5.45572e-19
-8.43143e-19
-1.36537e-18
-2.32117e-18
-4.1411e-18
-7.72791e-18
-1.50006e-17
-3.00758e-17
-6.1819e-17
-1.293e-16
-2.73305e-16
-5.80215e-16
-1.2309e-15
-2.59978e-15
-5.45598e-15
-1.13743e-14
-2.35908e-14
-4.88046e-14
-1.01035e-13
-2.09849e-13
-4.37961e-13
-9.18071e-13
-1.92897e-12
-4.04787e-12
-8.44691e-12
-1.74503e-11
-3.55388e-11
-7.10947e-11
-1.39276e-10
-2.66537e-10
-4.9729e-10
-9.03126e-10
-1.59459e-09
-2.73477e-09
-4.55249e-09
-7.35014e-09
-1.14975e-08
-1.74006e-08
-2.54448e-08
-3.59367e-08
-4.91029e-08
-6.51833e-08
-8.45384e-08
-1.07476e-07
-1.33378e-07
-1.59193e-07
-1.79345e-07
-1.90224e-07
-1.9527e-07
-1.97437e-07
-1.94174e-07
-1.84812e-07
-1.70179e-07
-1.51828e-07
-1.315e-07
-1.1087e-07
-9.13679e-08
-7.40483e-08
-5.94918e-08
-4.78136e-08
-3.87661e-08
-3.1903e-08
-2.67303e-08
-2.28072e-08
-1.97879e-08
-1.74222e-08
-1.5537e-08
-1.40135e-08
-1.27685e-08
-1.17408e-08
-1.08829e-08
-1.01585e-08
-9.54059e-09
-9.00726e-09
-8.52677e-09
-8.10374e-09
-7.73163e-09
-7.40564e-09
-7.12085e-09
-6.87216e-09
-6.6532e-09
-6.45763e-09
-6.27998e-09
-6.11533e-09
-5.95952e-09
-5.80946e-09
-5.66303e-09
-5.5192e-09
-5.37737e-09
-5.23671e-09
-5.09569e-09
-4.95185e-09
-4.80201e-09
-4.64444e-09
-4.4817e-09
-4.30673e-09
-4.12102e-09
-3.92753e-09
-3.7302e-09
-3.53288e-09
-3.33881e-09
-3.15028e-09
-2.96926e-09
-2.79836e-09
-2.63825e-09
-2.49004e-09
-2.35488e-09
-2.23304e-09
-2.12454e-09
-2.02907e-09
-1.94594e-09
-1.87478e-09
-1.81598e-09
-1.77087e-09
-1.74102e-09
-1.72321e-09
-1.70398e-09
-1.68089e-09
-1.61199e-09
-1.42415e-09
-1.08756e-09
-6.85306e-10
-3.49147e-10
-1.43118e-10
-4.70043e-11
-1.21909e-11
-2.45082e-12
-3.71665e-13
-4.11829e-14
-3.29522e-15
-2.07968e-16
-3.67208e-17
-3.30571e-16
-1.46896e-14
-3.68249e-13
-5.66277e-12
-6.45307e-11
-6.4762e-10
-5.65578e-09
-3.51156e-08
-1.36937e-07
-3.40912e-07
-5.8976e-07
-8.11497e-07
-1.04622e-06
-1.50107e-06
-4.15426e-06
-8.68611e-06
0.00101437
0.0164421
0
10.6002
5.35169
3243.91
296569
0
1.96084e+10