/*--------------------------------*- C++ -*----------------------------------*\
  =========                 |
  \\      /  F ield         | OpenFOAM: The Open Source CFD Toolbox
   \\    /   O peration     | Website:  https://openfoam.org
    \\  /    A nd           | Version:  13
     \\/     M anipulation  |
\*---------------------------------------------------------------------------*/
FoamFile
{
    format      ascii;
    class       volScalarField;
    location    "0.0021";
    object      rho;
}
// * * * * * * * * * * * * * * * * * * * * * * * * * * * * * * * * * * * * * //

dimensions      [1 -3 0 0 0 0 0];

internalField   nonuniform List<scalar> 
33334
(
0.30756
0.307817
0.308255
0.30884
0.309616
0.310529
0.311558
0.312672
0.313851
0.315075
0.316325
0.317583
0.318833
0.320066
0.32127
0.322446
0.323589
0.324692
0.325755
0.326773
0.327745
0.32867
0.329546
0.330373
0.331147
0.331869
0.332538
0.33316
0.333735
0.33427
0.334774
0.335262
0.33575
0.33625
0.33678
0.337355
0.337992
0.338706
0.33951
0.340412
0.341416
0.342525
0.343736
0.345042
0.346436
0.34791
0.349455
0.351061
0.352719
0.354419
0.356148
0.357898
0.359659
0.361423
0.36319
0.364961
0.366741
0.368537
0.370357
0.372208
0.374097
0.376028
0.378006
0.380033
0.382111
0.384245
0.386437
0.388691
0.391007
0.393384
0.395815
0.398289
0.400792
0.403312
0.405834
0.408342
0.410819
0.413253
0.415644
0.417974
0.420232
0.422333
0.42426
0.425979
0.427491
0.428867
0.430152
0.431292
0.432356
0.433327
0.434203
0.435032
0.435859
0.436708
0.437583
0.43849
0.439443
0.440459
0.441558
0.442765
0.444099
0.445573
0.447199
0.449024
0.451098
0.453315
0.455737
0.458423
0.461408
0.464712
0.468342
0.472292
0.476555
0.481123
0.485996
0.491171
0.496657
0.502479
0.508681
0.515326
0.52251
0.530403
0.539447
0.550515
0.56427
0.581301
0.604203
0.633962
0.66899
0.705524
0.739953
0.770557
0.797387
0.821517
0.84317
0.861892
0.87948
0.897498
0.917882
0.940021
0.963713
0.991811
1.02703
1.07242
1.12841
1.19513
1.2691
1.343
1.41052
1.46991
1.5226
1.57171
1.62112
1.67174
1.72315
1.77813
1.84049
1.91323
1.99995
2.10391
2.22415
2.36014
2.51317
2.68275
2.86621
3.06813
0.307817
0.308056
0.308508
0.309111
0.309878
0.310776
0.311779
0.312867
0.314016
0.315211
0.316436
0.317676
0.318916
0.320148
0.321357
0.322539
0.32369
0.324799
0.325866
0.326888
0.327861
0.328787
0.329662
0.330487
0.331259
0.331977
0.332641
0.333257
0.333825
0.334354
0.334851
0.335332
0.33581
0.336301
0.336823
0.33739
0.33802
0.338725
0.33952
0.340414
0.341411
0.342512
0.343713
0.345009
0.346392
0.347853
0.349385
0.350978
0.352623
0.35431
0.356028
0.357767
0.359517
0.361273
0.363032
0.364795
0.366568
0.368357
0.370171
0.372017
0.3739
0.375828
0.377802
0.379826
0.381903
0.384035
0.386226
0.38848
0.390796
0.393174
0.395606
0.398083
0.400591
0.403118
0.405646
0.408163
0.410652
0.413103
0.415515
0.417837
0.420104
0.422212
0.423994
0.4257
0.42713
0.428373
0.429434
0.430486
0.431528
0.432558
0.433571
0.434569
0.435553
0.436505
0.437433
0.438361
0.439317
0.440329
0.441419
0.442614
0.443934
0.445394
0.447008
0.448814
0.450858
0.453077
0.455468
0.458118
0.461076
0.464358
0.467961
0.471888
0.476128
0.480675
0.485535
0.490695
0.496164
0.501973
0.508161
0.514786
0.521953
0.529822
0.538806
0.549771
0.563525
0.580346
0.603006
0.632464
0.667125
0.703199
0.73706
0.767088
0.79352
0.817247
0.839407
0.858399
0.876303
0.894607
0.915321
0.937512
0.961214
0.989211
1.02456
1.07009
1.12722
1.195
1.26797
1.34065
1.40784
1.46748
1.52042
1.57003
1.62001
1.67101
1.72249
1.77727
1.83935
1.9122
1.99897
2.10279
2.22348
2.35978
2.51362
2.6844
2.86916
3.06927
0.308255
0.308508
0.308914
0.309489
0.310229
0.311114
0.312115
0.313206
0.314361
0.315562
0.316789
0.318028
0.319263
0.320486
0.321685
0.322857
0.323999
0.325101
0.326163
0.327181
0.328153
0.329077
0.329953
0.330777
0.331549
0.332268
0.332933
0.33355
0.334119
0.334651
0.335155
0.335642
0.33613
0.33663
0.337158
0.337732
0.338365
0.339072
0.339866
0.340758
0.341752
0.34285
0.344047
0.345338
0.346716
0.348174
0.349702
0.351293
0.352936
0.354623
0.356341
0.358081
0.359833
0.36159
0.36335
0.365115
0.366888
0.368677
0.37049
0.372334
0.374215
0.376139
0.37811
0.38013
0.382202
0.38433
0.386516
0.388765
0.391076
0.393449
0.395875
0.398345
0.400845
0.403361
0.405877
0.408381
0.410857
0.413296
0.41569
0.418016
0.420274
0.422417
0.424317
0.426003
0.427525
0.429077
0.430513
0.431722
0.432822
0.433778
0.434614
0.435374
0.436112
0.436879
0.437705
0.438597
0.439557
0.440592
0.441716
0.442945
0.444293
0.445777
0.447419
0.44925
0.451321
0.453564
0.455977
0.458647
0.461624
0.464921
0.468539
0.472478
0.476726
0.481281
0.486141
0.4913
0.496766
0.502571
0.508751
0.515372
0.522533
0.530395
0.539372
0.550328
0.564079
0.580924
0.603558
0.63302
0.667743
0.703919
0.737916
0.768099
0.794633
0.818316
0.840516
0.859397
0.877181
0.895405
0.915983
0.938052
0.961664
0.989726
1.02503
1.07004
1.12698
1.19461
1.26841
1.3422
1.41052
1.47071
1.52355
1.57239
1.62134
1.67151
1.72259
1.77742
1.83953
1.9126
2.00003
2.10496
2.22728
2.36458
2.51876
2.68955
2.87282
3.06892
0.30884
0.309111
0.309489
0.310108
0.310864
0.31176
0.312761
0.313843
0.314984
0.316166
0.317376
0.318601
0.319825
0.321041
0.322237
0.323408
0.324548
0.325651
0.326715
0.327734
0.328708
0.329634
0.33051
0.331335
0.332106
0.332823
0.333486
0.3341
0.334666
0.335198
0.3357
0.336188
0.336675
0.337173
0.3377
0.338271
0.338901
0.339607
0.340401
0.341293
0.342288
0.343383
0.344578
0.345865
0.34724
0.348692
0.350216
0.351801
0.35344
0.355122
0.356837
0.358574
0.360324
0.362081
0.36384
0.365604
0.367377
0.369165
0.370975
0.372816
0.374693
0.376612
0.378576
0.38059
0.382655
0.384776
0.386956
0.389197
0.391502
0.393867
0.396287
0.398751
0.401246
0.403758
0.406272
0.408772
0.411244
0.413673
0.416046
0.418357
0.420597
0.422721
0.424679
0.426399
0.4279
0.429261
0.4305
0.431671
0.432771
0.433788
0.434727
0.435602
0.436443
0.437287
0.438162
0.439085
0.440071
0.441136
0.442291
0.44355
0.444924
0.446431
0.448094
0.449946
0.45204
0.454295
0.456719
0.459395
0.462375
0.465672
0.469288
0.473222
0.477463
0.482009
0.486858
0.492005
0.497459
0.50325
0.509415
0.516022
0.523168
0.531016
0.539983
0.550933
0.564676
0.581548
0.604189
0.633689
0.668488
0.704743
0.738785
0.768957
0.795422
0.819033
0.841112
0.859902
0.877594
0.895776
0.916341
0.938426
0.962055
0.990068
1.02507
1.06986
1.12648
1.19382
1.2678
1.34164
1.40984
1.46998
1.52297
1.57196
1.62106
1.67125
1.72218
1.77696
1.83928
1.91273
2.00012
2.10436
2.22668
2.36422
2.51772
2.68848
2.87132
3.06842
0.309616
0.309878
0.310229
0.310864
0.311603
0.312492
0.313483
0.314557
0.315692
0.31687
0.318075
0.319294
0.320512
0.321722
0.32291
0.324075
0.325209
0.326307
0.327365
0.328381
0.329351
0.330274
0.331148
0.331971
0.332739
0.333455
0.334117
0.334731
0.3353
0.335834
0.336341
0.336833
0.337324
0.337826
0.338355
0.338928
0.339562
0.34027
0.341066
0.341959
0.342951
0.344045
0.345235
0.346518
0.347887
0.349333
0.350849
0.352428
0.35406
0.355735
0.357444
0.359176
0.360921
0.362673
0.364429
0.366188
0.367956
0.369738
0.371542
0.373375
0.375244
0.377153
0.379109
0.381114
0.383171
0.385284
0.387457
0.389691
0.391989
0.394348
0.39676
0.399217
0.401705
0.404209
0.406714
0.409206
0.41167
0.414091
0.416452
0.418755
0.420975
0.423085
0.425042
0.426769
0.428253
0.429633
0.430888
0.432037
0.433093
0.434084
0.435037
0.435956
0.436852
0.437746
0.438665
0.43963
0.44066
0.441769
0.442965
0.444258
0.445658
0.447186
0.448869
0.450741
0.452851
0.455127
0.457563
0.460249
0.463235
0.466536
0.470155
0.474089
0.478329
0.482873
0.487716
0.492855
0.498301
0.504082
0.510238
0.516836
0.523973
0.531815
0.540782
0.551738
0.565485
0.582371
0.605032
0.634557
0.669375
0.705636
0.739668
0.769816
0.796245
0.819824
0.841773
0.860497
0.878118
0.896247
0.916799
0.938865
0.962429
0.990451
1.02549
1.07034
1.1268
1.19407
1.26815
1.34209
1.41012
1.46989
1.52258
1.57166
1.62117
1.67154
1.72242
1.77704
1.83947
1.91319
2.00083
2.10479
2.22723
2.36556
2.51828
2.68817
2.87112
3.0705
0.310529
0.310776
0.311114
0.31176
0.312492
0.31338
0.314365
0.315431
0.316557
0.317726
0.318923
0.320135
0.321348
0.322553
0.323738
0.3249
0.326032
0.327129
0.328187
0.329201
0.330171
0.331093
0.331965
0.332785
0.333552
0.334265
0.334924
0.335537
0.336104
0.336638
0.337145
0.337639
0.33813
0.338633
0.339163
0.339738
0.340374
0.341085
0.341881
0.342773
0.343764
0.344855
0.346041
0.347319
0.34868
0.350119
0.351627
0.353196
0.354818
0.356484
0.358184
0.359907
0.361646
0.363392
0.365142
0.366896
0.368658
0.370434
0.372231
0.374055
0.375915
0.377815
0.379761
0.381756
0.383806
0.385912
0.388078
0.390306
0.392598
0.394949
0.397354
0.399802
0.402279
0.404771
0.407264
0.409744
0.412196
0.414604
0.416953
0.419241
0.421448
0.423544
0.4255
0.427246
0.428716
0.430111
0.431381
0.432541
0.433616
0.434627
0.435596
0.43653
0.437447
0.438374
0.439334
0.440348
0.441429
0.442589
0.443832
0.445166
0.446601
0.44816
0.449871
0.451768
0.4539
0.456195
0.458646
0.461342
0.464332
0.467634
0.471251
0.47518
0.479412
0.483945
0.488774
0.493898
0.499328
0.505091
0.51123
0.517812
0.524933
0.532766
0.541733
0.552696
0.566449
0.583346
0.606032
0.635585
0.670413
0.706664
0.740666
0.770772
0.797163
0.820711
0.842539
0.861197
0.878772
0.896857
0.917408
0.939461
0.96293
0.990934
1.02598
1.0709
1.12734
1.19463
1.26861
1.3424
1.41018
1.46967
1.52225
1.57149
1.62139
1.67203
1.72287
1.77732
1.84002
1.91421
2.00228
2.10596
2.22773
2.3669
2.51922
2.68761
2.87187
3.0744
0.311558
0.311779
0.312115
0.312761
0.313483
0.314365
0.315342
0.3164
0.317519
0.318683
0.319877
0.321086
0.322298
0.323502
0.324687
0.325849
0.326979
0.328075
0.329131
0.330144
0.331112
0.332031
0.3329
0.333718
0.334481
0.335192
0.335849
0.33646
0.337027
0.337562
0.338071
0.338566
0.339061
0.339566
0.3401
0.34068
0.341319
0.342033
0.342832
0.343725
0.344716
0.345805
0.346988
0.348261
0.349617
0.351048
0.352546
0.354105
0.355715
0.357369
0.359057
0.360769
0.362497
0.364234
0.365977
0.367724
0.36948
0.371248
0.373037
0.374852
0.376701
0.378591
0.380526
0.382512
0.384553
0.386652
0.388813
0.391036
0.393323
0.395668
0.398066
0.400505
0.402972
0.405453
0.407933
0.410399
0.412837
0.415231
0.417567
0.41984
0.422033
0.424122
0.426086
0.427838
0.429316
0.430732
0.432027
0.433208
0.434298
0.435319
0.4363
0.437257
0.438214
0.439191
0.440207
0.44128
0.442423
0.443641
0.444937
0.446317
0.447792
0.449386
0.451127
0.453052
0.45521
0.45752
0.459985
0.462688
0.465679
0.468977
0.472586
0.476504
0.480723
0.48524
0.490049
0.495152
0.50056
0.5063
0.512416
0.518977
0.526077
0.5339
0.542869
0.553844
0.567604
0.584524
0.607239
0.636823
0.671668
0.707901
0.741855
0.771902
0.798241
0.821761
0.843447
0.862036
0.879574
0.897609
0.918158
0.940193
0.963558
0.99155
1.02663
1.07164
1.12817
1.19551
1.26935
1.34292
1.41041
1.46959
1.52193
1.57113
1.62127
1.6722
1.72323
1.77751
1.8402
1.91482
2.00334
2.10709
2.228
2.3673
2.52087
2.68786
2.87221
3.07651
0.312672
0.312867
0.313206
0.313843
0.314557
0.315431
0.3164
0.317452
0.318566
0.319728
0.320921
0.322131
0.323345
0.324551
0.325739
0.326902
0.328034
0.32913
0.330186
0.331198
0.332163
0.333081
0.333948
0.334764
0.335525
0.336234
0.33689
0.337501
0.338069
0.338606
0.339117
0.339616
0.340115
0.340626
0.341165
0.34175
0.342395
0.343112
0.343915
0.34481
0.345802
0.34689
0.348071
0.34934
0.350689
0.352112
0.3536
0.355147
0.356743
0.358383
0.360056
0.361755
0.363472
0.365199
0.366934
0.368675
0.370424
0.372186
0.373967
0.375773
0.377613
0.379491
0.381416
0.383393
0.385425
0.387518
0.389672
0.391891
0.394172
0.396512
0.398903
0.401334
0.403791
0.406259
0.408727
0.411179
0.413603
0.415983
0.418307
0.420566
0.422746
0.424833
0.426808
0.428563
0.430064
0.431501
0.432822
0.434034
0.435156
0.436215
0.437235
0.43824
0.439251
0.440288
0.441371
0.442512
0.443722
0.445003
0.446354
0.44778
0.449297
0.450928
0.452698
0.454648
0.456831
0.45915
0.461623
0.464327
0.467312
0.470597
0.474191
0.478089
0.482286
0.486779
0.49156
0.496636
0.502016
0.507726
0.513814
0.520347
0.527423
0.535233
0.544203
0.55519
0.568952
0.585901
0.608638
0.638253
0.673115
0.709323
0.743219
0.7732
0.799481
0.822977
0.844494
0.863014
0.880524
0.898515
0.919056
0.941074
0.964342
0.992344
1.02749
1.07266
1.12933
1.19669
1.27036
1.34369
1.41089
1.46982
1.52191
1.57092
1.62103
1.67207
1.72327
1.77746
1.83982
1.91448
2.00345
2.10765
2.22819
2.36672
2.52205
2.68944
2.87266
3.07775
0.313851
0.314016
0.314361
0.314984
0.315692
0.316557
0.317519
0.318566
0.319679
0.320841
0.322037
0.323252
0.324472
0.325683
0.326877
0.328044
0.329178
0.330276
0.331331
0.332341
0.333305
0.33422
0.335085
0.335899
0.336659
0.337367
0.338023
0.338636
0.339206
0.339747
0.340263
0.340768
0.341273
0.341791
0.342339
0.342931
0.343582
0.344306
0.345113
0.346013
0.347006
0.348095
0.349275
0.35054
0.351884
0.353299
0.354777
0.356311
0.357893
0.359518
0.361177
0.362862
0.364567
0.366285
0.368012
0.369747
0.371491
0.373247
0.37502
0.376818
0.378648
0.380516
0.382431
0.384397
0.386421
0.388507
0.390656
0.39287
0.395146
0.397481
0.399866
0.402288
0.404736
0.407195
0.409651
0.412091
0.414503
0.416873
0.419188
0.421437
0.42361
0.425699
0.427689
0.42945
0.430982
0.432452
0.433811
0.435068
0.436242
0.437358
0.438442
0.439517
0.440604
0.441723
0.442888
0.444109
0.445394
0.44674
0.448145
0.449618
0.451175
0.452838
0.454632
0.456602
0.4588
0.461118
0.463589
0.466284
0.46925
0.472512
0.476078
0.479946
0.48411
0.488568
0.493314
0.498354
0.503697
0.509369
0.515421
0.521919
0.528964
0.536756
0.545725
0.556717
0.570484
0.587454
0.610212
0.639866
0.674749
0.71093
0.744764
0.774677
0.800903
0.824351
0.845685
0.864135
0.881614
0.899565
0.920089
0.942095
0.965292
0.993335
1.02859
1.07395
1.13078
1.19821
1.27177
1.3449
1.41185
1.4705
1.52228
1.571
1.62085
1.67184
1.72311
1.77743
1.83949
1.91386
2.00305
2.1079
2.22905
2.36671
2.52218
2.69238
2.87519
3.08019
0.315075
0.315211
0.315562
0.316166
0.31687
0.317726
0.318683
0.319728
0.320841
0.322008
0.32321
0.324433
0.325662
0.326882
0.328083
0.329255
0.330392
0.331491
0.332545
0.333555
0.334517
0.335431
0.336294
0.337107
0.337867
0.338577
0.339235
0.339851
0.340426
0.340973
0.341496
0.342009
0.342524
0.343052
0.343609
0.344211
0.344872
0.345604
0.346419
0.347323
0.34832
0.34941
0.350589
0.351852
0.353191
0.354598
0.356066
0.357588
0.359157
0.360766
0.36241
0.364082
0.365775
0.367484
0.369205
0.370934
0.372673
0.374424
0.376192
0.377982
0.379803
0.381661
0.383566
0.385523
0.387539
0.389618
0.391762
0.393971
0.396243
0.398573
0.400952
0.403369
0.405811
0.408262
0.410711
0.413143
0.415547
0.417911
0.420222
0.422468
0.42464
0.42674
0.428749
0.430531
0.432104
0.433621
0.435036
0.436358
0.437609
0.438814
0.439994
0.441169
0.44236
0.44358
0.444843
0.446153
0.447512
0.448919
0.450372
0.451883
0.453469
0.455152
0.456956
0.458933
0.461132
0.463432
0.465885
0.468555
0.471488
0.474712
0.478236
0.482061
0.486181
0.490593
0.495292
0.500286
0.505584
0.511209
0.517218
0.523673
0.530682
0.538453
0.547418
0.558412
0.572177
0.589162
0.611945
0.641645
0.67655
0.712696
0.746459
0.776293
0.802459
0.825857
0.847004
0.86538
0.882827
0.900748
0.921253
0.943263
0.966435
0.99456
1.02996
1.07551
1.13254
1.20009
1.27364
1.34661
1.41331
1.47174
1.52321
1.57159
1.6211
1.67176
1.72291
1.77742
1.83957
1.91366
2.00276
2.10814
2.23014
2.36865
2.523
2.69459
2.87943
3.08737
0.316325
0.316436
0.316789
0.317376
0.318075
0.318923
0.319877
0.320921
0.322037
0.32321
0.324422
0.325656
0.326894
0.328124
0.329333
0.330511
0.331651
0.332751
0.333805
0.334813
0.335774
0.336686
0.33755
0.338363
0.339124
0.339837
0.340499
0.341121
0.341703
0.342258
0.342791
0.343316
0.343842
0.344383
0.344954
0.345569
0.346242
0.346985
0.347809
0.348721
0.349723
0.350816
0.351996
0.353256
0.354591
0.355991
0.357451
0.358962
0.360518
0.362114
0.363744
0.365403
0.367086
0.368786
0.370501
0.372226
0.373961
0.375708
0.377472
0.379256
0.38107
0.38292
0.384815
0.386764
0.388772
0.390845
0.392985
0.395191
0.39746
0.399786
0.402162
0.404575
0.407013
0.409462
0.411907
0.414336
0.416738
0.419101
0.421415
0.423667
0.425851
0.427973
0.430015
0.431841
0.433476
0.435066
0.436565
0.437986
0.439349
0.440676
0.441984
0.443288
0.444603
0.445939
0.447303
0.448696
0.45012
0.451573
0.453058
0.454589
0.456186
0.457869
0.459661
0.461627
0.463807
0.466065
0.468482
0.471109
0.473994
0.477163
0.480632
0.484398
0.488461
0.492815
0.497457
0.502396
0.507639
0.513212
0.51917
0.525577
0.532544
0.540292
0.549253
0.560242
0.573995
0.590986
0.6138
0.643553
0.678479
0.714587
0.748274
0.778025
0.804126
0.827468
0.848435
0.866737
0.884151
0.90204
0.922514
0.94453
0.967712
0.995951
1.03151
1.07728
1.13455
1.20229
1.27592
1.34879
1.41527
1.47345
1.52462
1.57273
1.62188
1.67212
1.72302
1.77759
1.83997
1.91431
2.0033
2.10907
2.23155
2.3711
2.52649
2.69671
2.8836
3.09391
0.317583
0.317676
0.318028
0.318601
0.319294
0.320135
0.321086
0.322131
0.323252
0.324433
0.325656
0.326901
0.328152
0.329391
0.330608
0.33179
0.332933
0.334033
0.335087
0.336094
0.337054
0.337967
0.33883
0.339646
0.340411
0.341128
0.341797
0.342427
0.343019
0.343586
0.344132
0.34467
0.345213
0.34577
0.346358
0.346988
0.347677
0.348433
0.349268
0.350189
0.351198
0.352295
0.353476
0.354737
0.356068
0.357464
0.358916
0.360418
0.361964
0.363548
0.365166
0.366814
0.368486
0.370179
0.371888
0.37361
0.375343
0.377088
0.378849
0.38063
0.382439
0.384282
0.38617
0.388111
0.390113
0.39218
0.394316
0.39652
0.398787
0.401112
0.403487
0.4059
0.408338
0.410789
0.413236
0.415669
0.418074
0.420444
0.42277
0.425041
0.427254
0.42942
0.431523
0.433423
0.435158
0.436862
0.43849
0.440052
0.441565
0.443046
0.444505
0.445952
0.447394
0.448836
0.450285
0.45174
0.453203
0.454677
0.45617
0.457697
0.45928
0.460936
0.462695
0.464632
0.466759
0.468957
0.471315
0.473881
0.476698
0.479798
0.483195
0.48689
0.490883
0.495168
0.499744
0.50462
0.509802
0.515317
0.52122
0.527575
0.534498
0.54222
0.551178
0.562158
0.575885
0.592876
0.615732
0.645546
0.680495
0.716567
0.75018
0.779846
0.805876
0.829157
0.84995
0.868183
0.885568
0.903426
0.923864
0.945886
0.969109
0.997493
1.03324
1.07926
1.13678
1.20474
1.27846
1.35122
1.41747
1.47538
1.52631
1.57429
1.62327
1.67319
1.72367
1.77812
1.84071
1.91549
2.00494
2.11089
2.23417
2.37378
2.53041
2.7015
2.88888
3.10095
0.318833
0.318916
0.319263
0.319825
0.320512
0.321348
0.322298
0.323345
0.324472
0.325662
0.326894
0.328152
0.329412
0.330661
0.331884
0.333069
0.334214
0.335314
0.336366
0.337372
0.338332
0.339246
0.340113
0.340932
0.341703
0.342428
0.343106
0.343747
0.344351
0.344932
0.345494
0.34605
0.346612
0.347188
0.347796
0.348446
0.349152
0.349924
0.350773
0.351704
0.352721
0.353824
0.355009
0.35627
0.357601
0.358994
0.360442
0.361937
0.363475
0.36505
0.366658
0.368295
0.369959
0.371645
0.373349
0.375069
0.376802
0.378548
0.380309
0.382089
0.383896
0.385735
0.387619
0.389553
0.391549
0.393612
0.395745
0.397948
0.400217
0.402544
0.404921
0.407337
0.40978
0.412236
0.414691
0.417132
0.41955
0.421938
0.424291
0.426604
0.428875
0.43112
0.433329
0.435342
0.437241
0.439112
0.440919
0.442664
0.444357
0.446005
0.447613
0.449187
0.45073
0.452249
0.453748
0.455231
0.456703
0.458171
0.459645
0.461142
0.462683
0.464282
0.465979
0.467869
0.4699
0.47202
0.474297
0.476781
0.479514
0.48253
0.485841
0.489453
0.493366
0.497575
0.502079
0.506888
0.512005
0.51746
0.523307
0.529609
0.536489
0.544184
0.553137
0.564108
0.577804
0.594794
0.617704
0.64758
0.682555
0.718599
0.752146
0.781729
0.807684
0.8309
0.851521
0.869689
0.887043
0.904865
0.925245
0.947255
0.970518
0.999048
1.035
1.08127
1.13908
1.20727
1.28107
1.35371
1.4197
1.47731
1.528
1.57582
1.62474
1.67449
1.72468
1.77894
1.8418
1.91701
2.00719
2.1135
2.23729
2.37796
2.53428
2.70664
2.89519
3.11324
0.320066
0.320148
0.320486
0.321041
0.321722
0.322553
0.323502
0.324551
0.325683
0.326882
0.328124
0.329391
0.330661
0.331917
0.333144
0.334331
0.335476
0.336573
0.337625
0.338631
0.339592
0.340509
0.34138
0.342206
0.342984
0.343719
0.344409
0.345063
0.345682
0.34628
0.346861
0.347439
0.348021
0.348621
0.349251
0.349922
0.350648
0.351438
0.352302
0.353246
0.354273
0.355383
0.356573
0.357838
0.35917
0.360562
0.362008
0.3635
0.365032
0.366601
0.368202
0.369832
0.371488
0.373169
0.37487
0.376589
0.378323
0.380072
0.381836
0.383618
0.385426
0.387265
0.389145
0.391076
0.393068
0.395127
0.397259
0.399462
0.401735
0.404067
0.40645
0.408873
0.411323
0.413788
0.416255
0.418714
0.421158
0.423585
0.425995
0.428386
0.430763
0.433139
0.435513
0.437699
0.439835
0.441922
0.443943
0.445887
0.447757
0.449551
0.451272
0.452931
0.454539
0.456102
0.457626
0.459111
0.460563
0.461991
0.463409
0.464837
0.466295
0.467802
0.469401
0.471215
0.473119
0.475136
0.477313
0.479697
0.482333
0.485253
0.488471
0.491993
0.495823
0.499953
0.504385
0.509126
0.514181
0.519578
0.525372
0.531625
0.538463
0.546133
0.555081
0.566044
0.579712
0.596709
0.619673
0.649611
0.684619
0.720647
0.754142
0.783654
0.809537
0.832684
0.853135
0.871235
0.888552
0.906335
0.926646
0.948631
0.971938
1.00062
1.0368
1.08337
1.14147
1.20987
1.2837
1.35613
1.42171
1.47893
1.52929
1.57693
1.6258
1.67541
1.72547
1.77979
1.84293
1.91858
2.00935
2.11653
2.24071
2.38197
2.53955
2.71209
2.90265
3.12182
0.32127
0.321357
0.321685
0.322237
0.32291
0.323738
0.324687
0.325739
0.326877
0.328083
0.329333
0.330608
0.331884
0.333144
0.334372
0.335559
0.336703
0.337799
0.33885
0.339857
0.34082
0.341742
0.342619
0.343454
0.344242
0.344988
0.345692
0.346361
0.346998
0.347615
0.348218
0.348818
0.349425
0.350049
0.350704
0.351398
0.352145
0.352954
0.353834
0.354792
0.35583
0.35695
0.358146
0.359416
0.360752
0.362146
0.363593
0.365084
0.366615
0.36818
0.369776
0.371401
0.373052
0.374729
0.376428
0.378147
0.379884
0.381637
0.383407
0.385195
0.387007
0.388849
0.39073
0.39266
0.39465
0.396708
0.398841
0.401048
0.403327
0.405669
0.408062
0.410494
0.412954
0.415431
0.417918
0.420408
0.422903
0.425404
0.427917
0.430447
0.432994
0.435574
0.438179
0.440626
0.443035
0.445368
0.447591
0.44969
0.451691
0.453609
0.455441
0.457186
0.458841
0.46041
0.461902
0.463326
0.464691
0.466018
0.467324
0.46863
0.469961
0.471334
0.47282
0.474498
0.47627
0.478169
0.480236
0.482517
0.485053
0.487877
0.491003
0.494439
0.498188
0.502245
0.506609
0.511289
0.516287
0.521633
0.527377
0.533586
0.540389
0.548037
0.55698
0.567938
0.581587
0.598598
0.621616
0.651619
0.686666
0.722693
0.756153
0.785609
0.811423
0.834499
0.854774
0.872802
0.890074
0.90782
0.92806
0.950015
0.973361
1.0022
1.0386
1.08547
1.14389
1.21251
1.28632
1.3585
1.42364
1.48045
1.53046
1.57785
1.62659
1.67594
1.72592
1.7803
1.84377
1.92015
2.01151
2.11917
2.24463
2.38612
2.54418
2.71852
2.9107
3.13615
0.322446
0.322539
0.322857
0.323408
0.324075
0.3249
0.325849
0.326902
0.328044
0.329255
0.330511
0.33179
0.333069
0.334331
0.335559
0.336746
0.337888
0.338983
0.340034
0.341044
0.342011
0.342939
0.343825
0.344669
0.345469
0.346229
0.346947
0.347633
0.348289
0.348928
0.349553
0.350178
0.350811
0.351461
0.352141
0.352859
0.353629
0.354457
0.355355
0.356328
0.357379
0.358509
0.359715
0.360992
0.362333
0.363732
0.365181
0.366674
0.368206
0.369771
0.371365
0.372987
0.374635
0.376309
0.378007
0.379728
0.381469
0.383229
0.385007
0.386803
0.388623
0.390471
0.392356
0.394289
0.396281
0.39834
0.400476
0.402689
0.404976
0.407326
0.40973
0.412172
0.414646
0.417143
0.419666
0.422217
0.424806
0.427442
0.430133
0.432884
0.435686
0.438557
0.441459
0.444226
0.446843
0.449353
0.45178
0.454099
0.456282
0.458315
0.460194
0.461924
0.463515
0.464984
0.466351
0.467632
0.468846
0.470015
0.471161
0.472307
0.473478
0.474694
0.476057
0.477579
0.479227
0.481014
0.48298
0.485167
0.487612
0.490351
0.493395
0.496754
0.500433
0.504426
0.508732
0.513357
0.518306
0.523607
0.529309
0.53548
0.542254
0.549885
0.558826
0.569782
0.583418
0.600452
0.623526
0.653597
0.688689
0.724724
0.75816
0.787577
0.813333
0.836339
0.85644
0.874393
0.891621
0.909344
0.929525
0.951462
0.974867
1.00387
1.04055
1.08775
1.14651
1.21532
1.28908
1.36095
1.42564
1.48195
1.53154
1.57866
1.62724
1.67634
1.72628
1.78103
1.84488
1.92144
2.01372
2.1224
2.24804
2.39113
2.55028
2.72514
2.91994
3.14314
0.323589
0.32369
0.323999
0.324548
0.325209
0.326032
0.326979
0.328034
0.329178
0.330392
0.331651
0.332933
0.334214
0.335476
0.336703
0.337888
0.339028
0.340123
0.341177
0.34219
0.343164
0.3441
0.344995
0.34585
0.346662
0.347436
0.34817
0.348874
0.34955
0.350211
0.350861
0.351512
0.352171
0.352848
0.353554
0.354296
0.355089
0.355938
0.356855
0.357844
0.35891
0.360052
0.361268
0.362553
0.363901
0.365305
0.366759
0.368256
0.369791
0.371358
0.372953
0.374575
0.376222
0.377895
0.379593
0.381315
0.383062
0.384829
0.386617
0.388424
0.390254
0.392112
0.394005
0.395945
0.397942
0.400006
0.402146
0.404364
0.406657
0.409014
0.411427
0.413884
0.416382
0.418924
0.421522
0.424191
0.42695
0.429811
0.43278
0.435849
0.438999
0.442201
0.445322
0.448355
0.451296
0.454108
0.456746
0.459182
0.461399
0.463392
0.465173
0.466763
0.468187
0.469473
0.470649
0.471737
0.472757
0.473736
0.474701
0.475677
0.476681
0.477756
0.478996
0.480397
0.481939
0.483634
0.485519
0.48763
0.490003
0.492672
0.495649
0.498946
0.502566
0.506505
0.510762
0.515342
0.52025
0.525513
0.531178
0.537318
0.544067
0.551685
0.560626
0.571584
0.585214
0.602277
0.625408
0.655549
0.690692
0.726741
0.760162
0.789553
0.815263
0.838201
0.858143
0.876025
0.893216
0.910937
0.931088
0.953037
0.976541
1.00573
1.04267
1.09018
1.14925
1.21824
1.29198
1.36358
1.42785
1.48372
1.53292
1.57986
1.62831
1.67727
1.72735
1.78205
1.8463
1.92384
2.01657
2.12618
2.25325
2.39674
2.55741
2.73368
2.93159
3.15496
0.324692
0.324799
0.325101
0.325651
0.326307
0.327129
0.328075
0.32913
0.330276
0.331491
0.332751
0.334033
0.335314
0.336573
0.337799
0.338983
0.340123
0.341221
0.342278
0.343298
0.34428
0.345225
0.34613
0.346997
0.347822
0.34861
0.34936
0.350083
0.35078
0.351464
0.352139
0.352816
0.353503
0.354206
0.354939
0.355706
0.356522
0.357393
0.35833
0.359336
0.360417
0.361573
0.3628
0.364094
0.36545
0.366861
0.368321
0.369823
0.371363
0.372933
0.374532
0.376155
0.377803
0.379475
0.381174
0.382898
0.384649
0.386425
0.388223
0.390043
0.391886
0.393756
0.395661
0.39761
0.399615
0.401686
0.403829
0.406049
0.408342
0.410703
0.413127
0.415612
0.418164
0.420802
0.423549
0.426432
0.429471
0.432669
0.436024
0.43945
0.442881
0.446418
0.44995
0.453336
0.456524
0.459469
0.46213
0.464495
0.466575
0.46839
0.469969
0.471341
0.47254
0.473598
0.474545
0.475414
0.47623
0.477026
0.477827
0.478655
0.479523
0.480501
0.481651
0.482964
0.484428
0.486058
0.487885
0.48994
0.492259
0.494877
0.497802
0.50105
0.504622
0.508518
0.512734
0.517275
0.522147
0.527376
0.533009
0.539122
0.54585
0.553457
0.562398
0.573359
0.586989
0.604086
0.627274
0.657491
0.69269
0.728756
0.762164
0.791533
0.817204
0.840081
0.859884
0.877713
0.894889
0.912637
0.932792
0.954781
0.978397
1.00777
1.04498
1.0928
1.15221
1.22143
1.29515
1.36644
1.43025
1.48568
1.53456
1.58136
1.6298
1.67862
1.72874
1.78389
1.84888
1.92673
2.02046
2.1314
2.25887
2.40405
2.56635
2.7435
2.94486
3.15816
0.325755
0.325866
0.326163
0.326715
0.327365
0.328187
0.329131
0.330186
0.331331
0.332545
0.333805
0.335087
0.336366
0.337625
0.33885
0.340034
0.341177
0.342278
0.343342
0.344369
0.34536
0.346315
0.347231
0.34811
0.348948
0.34975
0.350518
0.351259
0.351979
0.352687
0.353388
0.354092
0.354806
0.355537
0.356296
0.357088
0.357929
0.358822
0.35978
0.360806
0.361903
0.363072
0.364311
0.365615
0.366979
0.368397
0.369863
0.371371
0.372916
0.374492
0.376094
0.377721
0.37937
0.381043
0.382741
0.384468
0.386222
0.388005
0.389815
0.391649
0.393509
0.395396
0.397316
0.399278
0.401292
0.403366
0.405508
0.407722
0.410011
0.412378
0.414829
0.417378
0.42005
0.422878
0.425894
0.429123
0.43257
0.436187
0.439862
0.443645
0.44757
0.451521
0.45533
0.458873
0.462079
0.464926
0.467418
0.46957
0.471413
0.472981
0.474305
0.475417
0.476354
0.47716
0.477882
0.478558
0.479214
0.479874
0.480563
0.481287
0.482075
0.482999
0.484092
0.485349
0.486762
0.488348
0.490136
0.492153
0.494435
0.497014
0.4999
0.503109
0.506642
0.5105
0.514681
0.519186
0.524026
0.529223
0.534826
0.540914
0.547623
0.555218
0.564159
0.575123
0.588757
0.60589
0.629137
0.659433
0.694692
0.730778
0.764171
0.793519
0.819156
0.841985
0.86167
0.879474
0.896661
0.914463
0.934636
0.956671
0.980414
1.00998
1.04745
1.09559
1.15533
1.22478
1.29853
1.36961
1.43303
1.48802
1.53656
1.58323
1.63161
1.68042
1.73077
1.78612
1.85163
1.93069
2.02542
2.13713
2.26613
2.41257
2.57524
2.75497
2.96141
3.16236
0.326773
0.326888
0.327181
0.327734
0.328381
0.329201
0.330144
0.331198
0.332341
0.333555
0.334813
0.336094
0.337372
0.338631
0.339857
0.341044
0.34219
0.343298
0.344369
0.345405
0.346406
0.347372
0.3483
0.34919
0.350042
0.35086
0.351645
0.352407
0.353149
0.353883
0.354611
0.355342
0.356084
0.356842
0.357628
0.358447
0.359313
0.360229
0.361209
0.362253
0.363368
0.364551
0.365802
0.367116
0.368489
0.369914
0.371387
0.372902
0.374453
0.376034
0.377642
0.379272
0.380924
0.382598
0.384298
0.386025
0.387783
0.389573
0.391394
0.393244
0.395122
0.397027
0.398964
0.400936
0.402953
0.405023
0.407154
0.409358
0.411648
0.414044
0.416572
0.419269
0.422178
0.42534
0.428776
0.432473
0.436308
0.440282
0.444482
0.448762
0.453034
0.45716
0.460982
0.464415
0.467427
0.470029
0.472248
0.474124
0.475689
0.476965
0.477989
0.478819
0.479517
0.480131
0.480702
0.481258
0.481817
0.482401
0.483027
0.483696
0.48445
0.485346
0.486408
0.48763
0.48901
0.490568
0.49233
0.494321
0.496577
0.499129
0.501985
0.505161
0.508661
0.512484
0.51663
0.521101
0.52591
0.531075
0.53665
0.542714
0.549402
0.556987
0.565924
0.576889
0.590531
0.607701
0.631007
0.661385
0.696708
0.732814
0.766192
0.795521
0.821131
0.843919
0.863511
0.881309
0.898525
0.916396
0.936596
0.958666
0.98254
1.01227
1.05
1.09848
1.1586
1.22837
1.30225
1.37311
1.43611
1.49068
1.53893
1.58548
1.63382
1.6825
1.73286
1.78879
1.85515
1.93504
2.03074
2.14395
2.27409
2.42169
2.58609
2.76831
2.9794
3.16454
0.327745
0.327861
0.328153
0.328708
0.329351
0.330171
0.331112
0.332163
0.333305
0.334517
0.335774
0.337054
0.338332
0.339592
0.34082
0.342011
0.343164
0.34428
0.34536
0.346406
0.347418
0.348395
0.349334
0.350237
0.351102
0.351937
0.352741
0.353526
0.354293
0.355053
0.355809
0.356569
0.357339