/*--------------------------------*- C++ -*----------------------------------*\
  =========                 |
  \\      /  F ield         | OpenFOAM: The Open Source CFD Toolbox
   \\    /   O peration     | Website:  https://openfoam.org
    \\  /    A nd           | Version:  13
     \\/     M anipulation  |
\*---------------------------------------------------------------------------*/
FoamFile
{
    format      ascii;
    class       volScalarField;
    location    "0.0021";
    object      T;
}
// * * * * * * * * * * * * * * * * * * * * * * * * * * * * * * * * * * * * * //

dimensions      [0 0 0 1 0 0 0];

internalField   nonuniform List<scalar> 
33334
(
2291.84
2292.31
2293.12
2294.19
2295.62
2297.29
2299.16
2301.16
2303.26
2305.43
2307.64
2309.86
2312.09
2314.3
2316.48
2318.64
2320.78
2322.93
2325.11
2327.33
2329.63
2331.99
2334.42
2336.91
2339.46
2342.04
2344.64
2347.24
2349.81
2352.29
2354.68
2356.95
2359.09
2361.1
2362.96
2364.67
2366.25
2367.71
2369.04
2370.27
2371.42
2372.54
2373.68
2374.88
2376.2
2377.71
2379.46
2381.5
2383.86
2386.58
2389.68
2393.18
2397.08
2401.38
2406.05
2411.06
2416.37
2421.93
2427.69
2433.62
2439.64
2445.73
2451.8
2457.82
2463.72
2469.45
2474.97
2480.26
2485.33
2490.19
2494.86
2499.36
2503.71
2507.94
2512.07
2516.12
2520.08
2523.96
2527.77
2531.49
2535.13
2538.6
2541.91
2545.03
2547.92
2550.61
2553.09
2555.24
2557.22
2559.12
2561.01
2562.92
2564.85
2566.82
2568.85
2570.95
2573.15
2575.46
2577.89
2580.48
2583.24
2586.2
2589.37
2592.82
2596.62
2600.63
2604.94
2609.61
2614.69
2620.2
2626.14
2632.49
2639.23
2646.33
2653.79
2661.61
2669.77
2678.32
2687.28
2696.73
2706.76
2717.54
2729.6
2743.92
2761.17
2781.87
2808.68
2842.11
2879.77
2917.35
2951.3
2980.25
3004.43
3025.35
3044.57
3063.34
3082.72
3098.87
3106.56
3106.9
3100.6
3080.94
3041.29
2978.01
2891.77
2791.78
2693.04
2609.47
2549.48
2513.68
2496.63
2491.14
2491.61
2497.36
2511.61
2533.78
2561.26
2591.79
2624.95
2660.97
2698.87
2738.47
2779.62
2822.32
2866.29
2909.87
2292.31
2292.75
2293.58
2294.69
2296.1
2297.73
2299.55
2301.51
2303.56
2305.67
2307.83
2310.03
2312.23
2314.44
2316.63
2318.8
2320.96
2323.11
2325.3
2327.53
2329.82
2332.18
2334.6
2337.09
2339.62
2342.2
2344.79
2347.37
2349.92
2352.39
2354.77
2357.03
2359.16
2361.15
2363
2364.71
2366.29
2367.73
2369.05
2370.27
2371.42
2372.53
2373.65
2374.83
2376.14
2377.63
2379.35
2381.36
2383.7
2386.39
2389.46
2392.93
2396.81
2401.08
2405.73
2410.72
2416.01
2421.55
2427.3
2433.21
2439.23
2445.31
2451.38
2457.4
2463.3
2469.04
2474.56
2479.87
2484.95
2489.82
2494.5
2499.01
2503.38
2507.62
2511.77
2515.83
2519.82
2523.73
2527.57
2531.28
2534.93
2538.41
2541.51
2544.61
2547.38
2549.86
2552.01
2554.04
2555.97
2557.93
2560.03
2562.21
2564.39
2566.51
2568.61
2570.74
2572.94
2575.24
2577.66
2580.23
2582.98
2585.91
2589.06
2592.49
2596.25
2600.26
2604.52
2609.15
2614.19
2619.68
2625.58
2631.9
2638.61
2645.69
2653.14
2660.94
2669.09
2677.62
2686.57
2696
2706.01
2716.78
2728.77
2742.98
2760.25
2780.72
2807.29
2840.44
2877.78
2914.98
2948.48
2976.98
3000.91
3021.55
3041.26
3060.27
3079.97
3096.51
3104.67
3105.14
3099.01
3079.48
3040.05
2976.97
2891.65
2792.65
2693.61
2609.64
2549.46
2513.44
2496.21
2490.77
2491.36
2497.18
2511.4
2533.48
2560.9
2591.51
2624.7
2660.66
2698.65
2738.3
2779.78
2822.83
2867.19
2910.55
2293.12
2293.58
2294.32
2295.38
2296.73
2298.33
2300.14
2302.1
2304.16
2306.29
2308.46
2310.65
2312.85
2315.04
2317.21
2319.36
2321.5
2323.64
2325.81
2328.03
2330.32
2332.67
2335.09
2337.57
2340.1
2342.66
2345.25
2347.83
2350.36
2352.84
2355.22
2357.5
2359.65
2361.66
2363.53
2365.26
2366.85
2368.31
2369.64
2370.86
2372
2373.11
2374.22
2375.4
2376.69
2378.17
2379.89
2381.89
2384.21
2386.89
2389.95
2393.41
2397.27
2401.53
2406.16
2411.13
2416.41
2421.94
2427.68
2433.58
2439.59
2445.66
2451.74
2457.76
2463.66
2469.39
2474.93
2480.24
2485.33
2490.2
2494.89
2499.4
2503.77
2508.01
2512.15
2516.2
2520.17
2524.07
2527.89
2531.62
2535.27
2538.81
2542.09
2545.17
2548.08
2551.04
2553.75
2556.06
2558.14
2560.02
2561.83
2563.57
2565.31
2567.12
2569.05
2571.12
2573.31
2575.64
2578.1
2580.72
2583.5
2586.47
2589.66
2593.12
2596.92
2600.97
2605.26
2609.91
2614.98
2620.49
2626.41
2632.74
2639.45
2646.54
2653.99
2661.78
2669.92
2678.44
2687.38
2696.79
2706.79
2717.54
2729.51
2743.7
2760.96
2781.45
2807.97
2841.11
2878.49
2915.75
2949.35
2977.98
3001.99
3022.58
3042.3
3061.2
3080.81
3097.32
3105.38
3105.77
3099.63
3080.34
3041.26
2978.25
2893.15
2794.27
2695.49
2611.73
2551.64
2515.36
2497.65
2491.68
2491.9
2497.34
2511.5
2533.8
2561.42
2592.2
2625.59
2661.87
2700.28
2740.16
2781.88
2824.7
2868.82
2911.57
2294.19
2294.69
2295.38
2296.5
2297.86
2299.48
2301.28
2303.22
2305.26
2307.36
2309.5
2311.67
2313.85
2316.03
2318.19
2320.34
2322.47
2324.62
2326.79
2329.01
2331.3
2333.65
2336.06
2338.54
2341.05
2343.61
2346.18
2348.74
2351.27
2353.73
2356.11
2358.38
2360.53
2362.55
2364.42
2366.16
2367.75
2369.21
2370.55
2371.78
2372.92
2374.03
2375.14
2376.3
2377.59
2379.06
2380.77
2382.75
2385.06
2387.72
2390.75
2394.18
2398.02
2402.24
2406.85
2411.79
2417.05
2422.56
2428.29
2434.17
2440.18
2446.24
2452.31
2458.33
2464.24
2469.99
2475.53
2480.86
2485.96
2490.85
2495.55
2500.08
2504.47
2508.74
2512.91
2516.98
2520.97
2524.87
2528.68
2532.41
2536.06
2539.6
2542.98
2546.1
2548.98
2551.67
2554.14
2556.45
2558.68
2560.75
2562.62
2564.4
2566.18
2568.04
2570
2572.08
2574.29
2576.63
2579.12
2581.77
2584.58
2587.59
2590.81
2594.31
2598.15
2602.21
2606.52
2611.18
2616.26
2621.76
2627.67
2633.99
2640.69
2647.76
2655.19
2662.96
2671.08
2679.57
2688.47
2697.86
2707.82
2718.55
2730.5
2744.68
2761.92
2782.43
2808.95
2842.11
2879.54
2916.85
2950.47
2979.05
3002.98
3023.51
3043.12
3061.95
3081.5
3097.97
3105.96
3106.32
3100.19
3080.96
3041.99
2979.2
2894.07
2794.9
2695.97
2611.89
2551.49
2515.12
2497.4
2491.44
2491.7
2497.19
2511.51
2534.14
2562.13
2593.21
2626.62
2662.71
2701.21
2741.23
2782.97
2825.56
2869.71
2913.18
2295.62
2296.1
2296.73
2297.86
2299.18
2300.76
2302.54
2304.46
2306.49
2308.59
2310.74
2312.9
2315.07
2317.24
2319.39
2321.53
2323.65
2325.78
2327.95
2330.16
2332.44
2334.78
2337.19
2339.65
2342.16
2344.7
2347.26
2349.81
2352.33
2354.79
2357.17
2359.45
2361.61
2363.63
2365.52
2367.27
2368.87
2370.35
2371.69
2372.92
2374.07
2375.17
2376.27
2377.44
2378.72
2380.18
2381.88
2383.85
2386.14
2388.78
2391.79
2395.2
2399
2403.19
2407.77
2412.69
2417.92
2423.41
2429.11
2434.99
2440.98
2447.04
2453.11
2459.13
2465.04
2470.8
2476.35
2481.69
2486.81
2491.72
2496.44
2501
2505.43
2509.73
2513.93
2518.04
2522.06
2525.99
2529.83
2533.57
2537.23
2540.76
2544.13
2547.22
2549.99
2552.63
2555.09
2557.42
2559.65
2561.75
2563.68
2565.54
2567.42
2569.35
2571.36
2573.47
2575.7
2578.07
2580.58
2583.26
2586.1
2589.13
2592.39
2595.92
2599.78
2603.88
2608.21
2612.88
2617.96
2623.46
2629.38
2635.69
2642.38
2649.44
2656.85
2664.6
2672.69
2681.15
2690.03
2699.38
2709.31
2720
2731.94
2746.1
2763.32
2783.83
2810.34
2843.49
2880.91
2918.18
2951.74
2980.27
3004.12
3024.6
3044.11
3062.9
3082.38
3098.73
3106.58
3106.83
3100.61
3081.29
3042.31
2979.63
2894.44
2795.15
2696.13
2611.92
2551.38
2514.98
2497.28
2491.35
2491.72
2497.36
2511.88
2534.7
2562.91
2594.23
2627.8
2663.84
2702.56
2742.85
2784.48
2827.1
2870.98
2915.37
2297.29
2297.73
2298.33
2299.48
2300.76
2302.34
2304.09
2306
2308.01
2310.1
2312.23
2314.39
2316.55
2318.72
2320.86
2322.99
2325.11
2327.24
2329.41
2331.62
2333.89
2336.23
2338.63
2341.08
2343.58
2346.1
2348.65
2351.19
2353.69
2356.15
2358.53
2360.8
2362.97
2365
2366.89
2368.65
2370.27
2371.76
2373.11
2374.34
2375.49
2376.58
2377.68
2378.84
2380.11
2381.57
2383.26
2385.22
2387.5
2390.13
2393.13
2396.51
2400.29
2404.46
2409.01
2413.91
2419.12
2424.59
2430.28
2436.14
2442.13
2448.18
2454.25
2460.27
2466.19
2471.95
2477.52
2482.86
2488
2492.93
2497.67
2502.27
2506.72
2511.07
2515.31
2519.46
2523.52
2527.49
2531.36
2535.13
2538.8
2542.31
2545.65
2548.68
2551.33
2553.91
2556.35
2558.72
2561.01
2563.18
2565.23
2567.21
2569.18
2571.18
2573.25
2575.41
2577.68
2580.08
2582.63
2585.34
2588.22
2591.28
2594.58
2598.14
2602.04
2606.16
2610.51
2615.19
2620.27
2625.77
2631.67
2637.96
2644.63
2651.66
2659.04
2666.75
2674.8
2683.21
2692.03
2701.33
2711.2
2721.85
2733.74
2747.86
2765.05
2785.51
2812
2845.12
2882.49
2919.69
2953.17
2981.6
3005.38
3025.8
3045.19
3063.93
3083.36
3099.59
3107.27
3107.41
3101.05
3081.51
3042.23
2979.37
2894.06
2794.7
2695.6
2611.4
2550.98
2514.78
2497.35
2491.6
2492.08
2497.93
2512.55
2535.39
2563.75
2595.33
2629.17
2665.29
2704.16
2744.85
2786.4
2829.23
2872.34
2917.95
2299.16
2299.55
2300.14
2301.28
2302.54
2304.09
2305.82
2307.71
2309.71
2311.79
2313.91
2316.07
2318.23
2320.39
2322.53
2324.66
2326.78
2328.91
2331.08
2333.29
2335.56
2337.89
2340.27
2342.71
2345.2
2347.71
2350.24
2352.77
2355.26
2357.72
2360.09
2362.38
2364.55
2366.6
2368.51
2370.28
2371.92
2373.41
2374.77
2376
2377.15
2378.24
2379.34
2380.5
2381.77
2383.23
2384.92
2386.88
2389.15
2391.77
2394.76
2398.13
2401.89
2406.05
2410.58
2415.46
2420.64
2426.1
2431.77
2437.62
2443.6
2449.65
2455.71
2461.73
2467.65
2473.42
2478.99
2484.36
2489.51
2494.46
2499.23
2503.85
2508.35
2512.73
2517.02
2521.21
2525.32
2529.33
2533.23
2537.03
2540.71
2544.22
2547.53
2550.52
2553.12
2555.67
2558.13
2560.52
2562.82
2565.04
2567.18
2569.28
2571.37
2573.47
2575.63
2577.86
2580.21
2582.68
2585.28
2588.03
2590.95
2594.05
2597.38
2600.97
2604.9
2609.04
2613.4
2618.08
2623.15
2628.63
2634.5
2640.76
2647.39
2654.38
2661.7
2669.36
2677.35
2685.7
2694.45
2703.67
2713.47
2724.04
2735.87
2749.94
2767.06
2787.47
2813.9
2846.97
2884.26
2921.37
2954.73
2983.05
3006.73
3027.09
3046.35
3065.03
3084.4
3100.53
3108.05
3108.08
3101.57
3081.72
3042
2978.69
2893.03
2793.49
2694.38
2610.43
2550.41
2514.6
2497.5
2492.01
2492.68
2498.76
2513.5
2536.28
2564.65
2596.46
2630.66
2666.99
2705.86
2746.95
2788.72
2831.49
2874.48
2919.92
2301.16
2301.51
2302.1
2303.22
2304.46
2306
2307.71
2309.57
2311.56
2313.62
2315.75
2317.9
2320.06
2322.23
2324.38
2326.51
2328.63
2330.76
2332.93
2335.14
2337.4
2339.73
2342.11
2344.53
2347
2349.51
2352.02
2354.54
2357.04
2359.49
2361.87
2364.17
2366.35
2368.41
2370.34
2372.14
2373.79
2375.3
2376.66
2377.91
2379.06
2380.15
2381.25
2382.41
2383.69
2385.14
2386.83
2388.8
2391.07
2393.69
2396.67
2400.03
2403.78
2407.92
2412.43
2417.29
2422.46
2427.89
2433.55
2439.38
2445.35
2451.39
2457.45
2463.47
2469.4
2475.17
2480.76
2486.14
2491.31
2496.28
2501.09
2505.74
2510.27
2514.69
2519.02
2523.25
2527.4
2531.45
2535.39
2539.22
2542.91
2546.43
2549.76
2552.74
2555.36
2557.94
2560.42
2562.83
2565.16
2567.43
2569.67
2571.87
2574.06
2576.28
2578.54
2580.88
2583.32
2585.87
2588.54
2591.35
2594.31
2597.45
2600.8
2604.42
2608.36
2612.5
2616.86
2621.53
2626.57
2632.01
2637.83
2644.04
2650.61
2657.53
2664.79
2672.37
2680.28
2688.54
2697.21
2706.33
2716.04
2726.52
2738.27
2752.27
2769.3
2789.65
2816
2848.99
2886.19
2923.17
2956.39
2984.59
3008.17
3028.49
3047.58
3066.19
3085.52
3101.57
3108.96
3108.89
3102.18
3081.97
3041.7
2977.77
2891.58
2791.79
2692.76
2609.22
2549.74
2514.46
2497.74
2492.48
2493.31
2499.65
2514.63
2537.48
2565.78
2597.68
2632.2
2668.87
2707.71
2748.83
2791.16
2833.86
2877.5
2920.58
2303.26
2303.56
2304.16
2305.26
2306.49
2308.01
2309.71
2311.56
2313.53
2315.59
2317.7
2319.86
2322.03
2324.2
2326.36
2328.49
2330.62
2332.76
2334.92
2337.13
2339.39
2341.71
2344.08
2346.5
2348.96
2351.45
2353.96
2356.47
2358.97
2361.42
2363.81
2366.12
2368.33
2370.41
2372.36
2374.18
2375.85
2377.37
2378.76
2380.01
2381.17
2382.28
2383.38
2384.54
2385.83
2387.29
2388.99
2390.96
2393.24
2395.85
2398.83
2402.19
2405.93
2410.05
2414.55
2419.39
2424.53
2429.95
2435.59
2441.41
2447.36
2453.39
2459.44
2465.46
2471.39
2477.18
2482.78
2488.18
2493.37
2498.38
2503.21
2507.9
2512.46
2516.92
2521.29
2525.56
2529.74
2533.83
2537.81
2541.67
2545.38
2548.94
2552.32
2555.35
2558.05
2560.7
2563.23
2565.68
2568.06
2570.39
2572.7
2575
2577.3
2579.64
2582.03
2584.49
2587.05
2589.7
2592.44
2595.31
2598.31
2601.48
2604.84
2608.47
2612.41
2616.53
2620.86
2625.49
2630.48
2635.85
2641.61
2647.75
2654.24
2661.07
2668.23
2675.71
2683.53
2691.68
2700.24
2709.25
2718.84
2729.22
2740.89
2754.8
2771.73
2792
2818.26
2851.17
2888.27
2925.12
2958.19
2986.26
3009.76
3030.01
3048.94
3067.48
3086.78
3102.74
3110.04
3109.86
3102.91
3082.31
3041.45
2976.86
2890.11
2790.07
2691.2
2608.13
2549.21
2514.41
2498.05
2492.97
2493.91
2500.55
2515.9
2539.05
2567.42
2599.31
2633.95
2670.94
2709.96
2750.82
2793.51
2836.25
2880.09
2924.21
2305.43
2305.67
2306.29
2307.36
2308.59
2310.1
2311.79
2313.62
2315.59
2317.64
2319.76
2321.93
2324.11
2326.29
2328.45
2330.59
2332.72
2334.86
2337.02
2339.23
2341.49
2343.8
2346.16
2348.57
2351.02
2353.5
2356.01
2358.53
2361.02
2363.49
2365.9
2368.22
2370.45
2372.55
2374.53
2376.37
2378.07
2379.62
2381.03
2382.31
2383.48
2384.6
2385.72
2386.9
2388.19
2389.67
2391.37
2393.35
2395.63
2398.25
2401.22
2404.57
2408.3
2412.42
2416.9
2421.72
2426.85
2432.25
2437.87
2443.67
2449.61
2455.63
2461.68
2467.7
2473.63
2479.43
2485.04
2490.46
2495.68
2500.72
2505.58
2510.31
2514.91
2519.4
2523.8
2528.11
2532.33
2536.45
2540.47
2544.36
2548.12
2551.74
2555.21
2558.34
2561.16
2563.91
2566.54
2569.08
2571.54
2573.96
2576.37
2578.77
2581.2
2583.67
2586.2
2588.79
2591.46
2594.2
2597.02
2599.93
2602.96
2606.14
2609.5
2613.1
2617.02
2621.08
2625.35
2629.92
2634.83
2640.12
2645.78
2651.82
2658.2
2664.92
2671.97
2679.34
2687.03
2695.06
2703.49
2712.39
2721.85
2732.13
2743.7
2757.52
2774.35
2794.53
2820.7
2853.54
2890.53
2927.23
2960.15
2988.09
3011.49
3031.69
3050.47
3068.95
3088.2
3104.07
3111.3
3111.03
3103.8
3082.77
3041.32
2976.09
2888.83
2788.57
2689.86
2607.27
2548.91
2514.57
2498.53
2493.62
2494.64
2501.55
2517.3
2540.88
2569.54
2601.47
2636.12
2673.26
2712.51
2753.43
2795.75
2839.12
2882.46
2928.6
2307.64
2307.83
2308.46
2309.5
2310.74
2312.23
2313.91
2315.75
2317.7
2319.76
2321.89
2324.07
2326.26
2328.45
2330.62
2332.76
2334.89
2337.03
2339.19
2341.39
2343.64
2345.94
2348.29
2350.7
2353.14
2355.63
2358.14
2360.66
2363.17
2365.65
2368.07
2370.42
2372.67
2374.8
2376.82
2378.69
2380.42
2382.01
2383.44
2384.75
2385.95
2387.1
2388.24
2389.43
2390.75
2392.24
2393.96
2395.94
2398.23
2400.85
2403.82
2407.16
2410.89
2414.99
2419.46
2424.28
2429.39
2434.77
2440.38
2446.17
2452.1
2458.11
2464.16
2470.18
2476.11
2481.92
2487.55
2492.99
2498.24
2503.3
2508.2
2512.96
2517.59
2522.12
2526.56
2530.91
2535.16
2539.32
2543.38
2547.32
2551.14
2554.85
2558.43
2561.69
2564.67
2567.58
2570.37
2573.04
2575.65
2578.21
2580.76
2583.31
2585.88
2588.49
2591.15
2593.86
2596.62
2599.43
2602.29
2605.22
2608.26
2611.41
2614.73
2618.29
2622.15
2626.12
2630.31
2634.78
2639.58
2644.76
2650.3
2656.21
2662.47
2669.06
2675.98
2683.21
2690.77
2698.67
2706.96
2715.72
2725.06
2735.23
2746.72
2760.44
2777.16
2797.25
2823.35
2856.12
2893.01
2929.56
2962.31
2990.1
3013.41
3033.54
3052.18
3070.61
3089.79
3105.56
3112.73
3112.36
3104.82
3083.33
3041.28
2975.42
2887.66
2787.21
2688.69
2606.57
2548.82
2515.01
2499.3
2494.58
2495.67
2502.81
2518.93
2542.92
2571.89
2604.07
2638.75
2675.98
2715.32
2756.47
2798.73
2841.95
2885.91
2931.14
2309.86
2310.03
2310.65
2311.67
2312.9
2314.39
2316.07
2317.9
2319.86
2321.93
2324.07
2326.25
2328.46
2330.65
2332.82
2334.97
2337.1
2339.23
2341.39
2343.58
2345.82
2348.11
2350.46
2352.86
2355.3
2357.79
2360.31
2362.85
2365.37
2367.87
2370.32
2372.69
2374.97
2377.14
2379.19
2381.11
2382.88
2384.5
2385.98
2387.33
2388.57
2389.75
2390.92
2392.14
2393.48
2394.99
2396.72
2398.72
2401.01
2403.63
2406.61
2409.95
2413.67
2417.76
2422.23
2427.03
2432.14
2437.51
2443.11
2448.89
2454.81
2460.82
2466.86
2472.88
2478.83
2484.64
2490.29
2495.76
2501.03
2506.12
2511.05
2515.84
2520.51
2525.08
2529.56
2533.95
2538.24
2542.44
2546.55
2550.56
2554.46
2558.29
2562.02
2565.45
2568.63
2571.76
2574.76
2577.66
2580.48
2583.25
2585.98
2588.7
2591.43
2594.16
2596.92
2599.71
2602.51
2605.35
2608.21
2611.13
2614.13
2617.23
2620.48
2623.97
2627.73
2631.58
2635.65
2640
2644.68
2649.71
2655.12
2660.89
2667
2673.45
2680.22
2687.31
2694.72
2702.47
2710.63
2719.25
2728.46
2738.53
2749.93
2763.57
2780.18
2800.17
2826.21
2858.93
2895.72
2932.11
2964.7
2992.33
3015.52
3035.58
3054.08
3072.46
3091.55
3107.2
3114.28
3113.81
3105.95
3083.97
3041.29
2974.79
2886.52
2785.87
2687.54
2605.93
2548.83
2515.62
2500.36
2495.9
2497.12
2504.51
2520.91
2545.18
2574.43
2606.87
2641.79
2679.1
2718.61
2759.71
2802.34
2845.23
2889.69
2933.96
2312.09
2312.23
2312.85
2313.85
2315.07
2316.55
2318.23
2320.06
2322.03
2324.11
2326.26
2328.46
2330.67
2332.86
2335.04
2337.18
2339.3
2341.43
2343.58
2345.76
2347.99
2350.27
2352.61
2355.02
2357.47
2359.97
2362.5
2365.05
2367.59
2370.12
2372.6
2375
2377.32
2379.54
2381.63
2383.59
2385.42
2387.09
2388.62
2390.02
2391.3
2392.53
2393.73
2394.99
2396.36
2397.89
2399.65
2401.66
2403.96
2406.59
2409.56
2412.9
2416.61
2420.71
2425.16
2429.96
2435.07
2440.44
2446.04
2451.82
2457.73
2463.74
2469.78
2475.8
2481.76
2487.58
2493.25
2498.74
2504.04
2509.17
2514.13
2518.96
2523.67
2528.28
2532.79
2537.22
2541.57
2545.83
2550.02
2554.12
2558.15
2562.14
2566.06
2569.7
2573.16
2576.57
2579.87
2583.05
2586.14
2589.14
2592.08
2594.97
2597.81
2600.64
2603.46
2606.26
2609.07
2611.89
2614.72
2617.59
2620.52
2623.53
2626.67
2630.07
2633.66
2637.38
2641.31
2645.51
2650.04
2654.92
2660.17
2665.79
2671.75
2678.04
2684.66
2691.6
2698.86
2706.47
2714.49
2722.97
2732.06
2742.02
2753.35
2766.9
2783.39
2803.3
2829.3
2861.96
2898.66
2934.9
2967.32
2994.78
3017.83
3037.79
3056.14
3074.45
3093.45
3108.94
3115.92
3115.32
3107.1
3084.61
3041.28
2974.11
2885.31
2784.45
2686.33
2605.28
2548.89
2516.33
2501.55
2497.39
2498.78
2506.49
2523.19
2547.69
2577.2
2609.87
2645.07
2682.51
2722.21
2763.41
2805.9
2849.42
2892.44
2938.76
2314.3
2314.44
2315.04
2316.03
2317.24
2318.72
2320.39
2322.23
2324.2
2326.29
2328.45
2330.65
2332.86
2335.06
2337.23
2339.37
2341.49
2343.6
2345.74
2347.91
2350.13
2352.41
2354.75
2357.16
2359.62
2362.13
2364.68
2367.25
2369.83
2372.38
2374.89
2377.34
2379.7
2381.96
2384.11
2386.13
2388.01
2389.75
2391.34
2392.79
2394.14
2395.41
2396.66
2397.96
2399.36
2400.93
2402.71
2404.74
2407.06
2409.69
2412.66
2416
2419.71
2423.8
2428.25
2433.05
2438.15
2443.53
2449.13
2454.91
2460.83
2466.84
2472.88
2478.91
2484.88
2490.72
2496.41
2501.93
2507.26
2512.42
2517.43
2522.29
2527.04
2531.69
2536.25
2540.74
2545.15
2549.51
2553.8
2558.06
2562.28
2566.49
2570.68
2574.6
2578.44
2582.18
2585.81
2589.3
2592.66
2595.88
2598.98
2601.99
2604.93
2607.81
2610.65
2613.45
2616.23
2618.98
2621.73
2624.49
2627.3
2630.16
2633.16
2636.44
2639.84
2643.4
2647.16
2651.2
2655.57
2660.29
2665.38
2670.83
2676.64
2682.78
2689.24
2696.04
2703.16
2710.63
2718.51
2726.87
2735.83
2745.69
2756.95
2770.41
2786.79
2806.62
2832.58
2865.2
2901.79
2937.9
2970.15
2997.43
3020.32
3040.18
3058.36
3076.58
3095.45
3110.76
3117.61
3116.87
3108.29
3085.27
3041.27
2973.4
2884.04
2782.94
2685.05
2604.6
2548.92
2517
2502.7
2498.81
2500.4
2508.49
2525.59
2550.4
2580.14
2613.02
2648.42
2686.1
2725.88
2767.27
2809.67
2853.26
2897.54
2939.39
2316.48
2316.63
2317.21
2318.19
2319.39
2320.86
2322.53
2324.38
2326.36
2328.45
2330.62
2332.82
2335.04
2337.23
2339.4
2341.53
2343.64
2345.74
2347.87
2350.03
2352.25
2354.53
2356.87
2359.28
2361.75
2364.28
2366.85
2369.45
2372.05
2374.64
2377.19
2379.68
2382.1
2384.42
2386.62
2388.71
2390.66
2392.46
2394.12
2395.64
2397.05
2398.38
2399.69
2401.03
2402.47
2404.07
2405.88
2407.93
2410.26
2412.91
2415.88
2419.22
2422.92
2427.01
2431.46
2436.25
2441.36
2446.74
2452.34
2458.14
2464.06
2470.08
2476.14
2482.18
2488.16
2494.03
2499.75
2505.3
2510.67
2515.88
2520.92
2525.83
2530.62
2535.32
2539.93
2544.49
2549.01
2553.5
2557.98
2562.46
2566.96
2571.49
2576.04
2580.36
2584.6
2588.72
2592.65
2596.38
2599.94
2603.36
2606.63
2609.77
2612.78
2615.67
2618.47
2621.19
2623.85
2626.46
2629.05
2631.64
2634.26
2636.94
2639.78
2642.86
2646.08
2649.46
2653.06
2656.94
2661.15
2665.72
2670.65
2675.95
2681.61
2687.61
2693.94
2700.6
2707.58
2714.93
2722.68
2730.91
2739.76
2749.53
2760.7
2774.09
2790.36
2810.12
2836.03
2868.6
2905.1
2941.07
2973.16
3000.28
3023
3042.72
3060.72
3078.85
3097.57
3112.67
3119.37
3118.48
3109.51
3085.93
3041.24
2972.64
2882.7
2781.39
2683.75
2603.93
2549
2517.72
2503.87
2500.23
2502
2510.44
2527.97
2553.13
2583.14
2616.28
2651.89
2689.66
2729.69
2771.11
2813.66
2857.22
2901.57
2943.99
2318.64
2318.8
2319.36
2320.34
2321.53
2322.99
2324.66
2326.51
2328.49
2330.59
2332.76
2334.97
2337.18
2339.37
2341.53
2343.65
2345.75
2347.85
2349.97
2352.13
2354.34
2356.61
2358.96
2361.38
2363.87
2366.42
2369.01
2371.63
2374.27
2376.9
2379.49
2382.03
2384.51
2386.89
2389.16
2391.32
2393.34
2395.22
2396.95
2398.55
2400.02
2401.42
2402.79
2404.18
2405.67
2407.3
2409.14
2411.21
2413.57
2416.22
2419.2
2422.54
2426.24
2430.31
2434.76
2439.55
2444.66
2450.05
2455.67
2461.47
2467.42
2473.45
2479.53
2485.59
2491.59
2497.48
2503.23
2508.82
2514.24
2519.49
2524.58
2529.53
2534.37
2539.12
2543.82
2548.49
2553.17
2557.88
2562.64
2567.47
2572.36
2577.33
2582.33
2587.12
2591.67
2596.05
2600.29
2604.34
2608.17
2611.77
2615.12
2618.26
2621.19
2623.96
2626.6
2629.13
2631.58
2633.98
2636.36
2638.73
2641.14
2643.61
2646.28
2649.16
2652.2
2655.43
2658.89
2662.63
2666.7
2671.13
2675.93
2681.1
2686.63
2692.5
2698.7
2705.24
2712.11
2719.33
2726.96
2735.08
2743.83
2753.5
2764.6
2777.9
2794.07
2813.76
2839.63
2872.14
2908.56
2944.4
2976.33
3003.28
3025.84
3045.43
3063.24
3081.26
3099.82
3114.7
3121.25
3120.2
3110.84
3086.69
3041.3
2971.94
2881.39
2779.86
2682.5
2603.33
2549.15
2518.52
2505.11
2501.72
2503.66
2512.46
2530.45
2556.04
2586.32
2619.56
2655.44
2693.44
2733.4
2775.23
2817.8
2861.8
2906.95
2942.73
2320.78
2320.96
2321.5
2322.47
2323.65
2325.11
2326.78
2328.63
2330.62
2332.72
2334.89
2337.1
2339.3
2341.49
2343.64
2345.75
2347.84
2349.94
2352.05
2354.21
2356.42
2358.7
2361.05
2363.48
2365.98
2368.55
2371.16
2373.82
2376.48
2379.15
2381.8
2384.4
2386.93
2389.38
2391.73
2393.96
2396.06
2398.02
2399.84
2401.51
2403.06
2404.53
2405.96
2407.41
2408.94
2410.61
2412.47
2414.57
2416.94
2419.61
2422.6
2425.93
2429.63
2433.7
2438.13
2442.92
2448.04
2453.43
2459.07
2464.89
2470.86
2476.92
2483.02
2489.11
2495.14
2501.06
2506.85
2512.48
2517.94
2523.23
2528.37
2533.37
2538.27
2543.11
2547.94
2552.81
2557.75
2562.81
2568
2573.31
2578.71
2584.17
2589.49
2594.66
2599.68
2604.5
2609.04
2613.27
2617.16
2620.72
2623.96
2626.92
2629.64
2632.18
2634.58
2636.86
2639.06
2641.21
2643.35
2645.51
2647.7
2649.99
2652.5
2655.22
2658.13
2661.23
2664.58
2668.22
2672.18
2676.5
2681.19
2686.25
2691.67
2697.43
2703.53
2709.96
2716.71
2723.83
2731.35
2739.36
2748.01
2757.59
2768.61
2781.83
2797.91
2817.54
2843.36
2875.82
2912.15
2947.87
2979.65
3006.45
3028.86
3048.3
3065.94
3083.86
3102.26
3116.91
3123.29
3122.09
3112.35
3087.61
3041.47
2971.31
2880.13
2778.37
2681.3
2602.8
2549.42
2519.49
2506.56
2503.47
2505.6
2514.81
2533.29
2559.13
2589.65
2623.24
2659.21
2697.43
2737.65
2779.42
2822.48
2866.15
2911.59
2942.41
2322.93
2323.11
2323.64
2324.62
2325.78
2327.24
2328.91
2330.76
2332.76
2334.86
2337.03
2339.23
2341.43
2343.6
2345.74
2347.85
2349.94
2352.03
2354.14
2356.29
2358.51
2360.79
2363.15
2365.59
2368.11
2370.69
2373.33
2376.01
2378.72
2381.43
2384.12
2386.78
2389.38
2391.9
2394.33
2396.64
2398.83
2400.87
2402.77
2404.53
2406.16
2407.7
2409.19
2410.69
2412.27
2413.97
2415.87
2418
2420.39
2423.07
2426.06
2429.4
2433.09
2437.14
2441.57
2446.36
2451.47
2456.88
2462.53
2468.37
2474.36
2480.45
2486.58
2492.71
2498.77
2504.74
2510.56
2516.23
2521.72
2527.05
2532.23
2537.3
2542.31
2547.31
2552.38
2557.58
2562.95
2568.52
2574.28
2580.11
2585.92
2591.86
2597.77
2603.44
2608.81
2613.82
2618.4
2622.54
2626.26
2629.59
2632.57
2635.26
2637.7
2639.95
2642.06
2644.07
2646.01
2647.93
2649.87
2651.84
2653.87
2656.04
2658.44
2661.05
2663.86
2666.88
2670.16
2673.72
2677.6
2681.84
2686.45
2691.41
2696.74
2702.41
2708.41
2714.74
2721.4
2728.41
2735.83
2743.74
2752.3
2761.79
2772.74
2785.89
2801.88
2821.45
2847.22
2879.64
2915.89
2951.48
2983.12
3009.78
3032.03
3051.35
3068.84
3086.67
3104.92
3119.34
3125.56
3124.19
3114.05
3088.69
3041.78
2970.8
2878.96
2776.94
2680.14
2602.33
2549.79
2520.58
2508.19
2505.41
2507.78
2517.4
2536.32
2562.56
2593.4
2627.06
2663.3
2701.83
2742.1
2784.18
2827.32
2871.65
2917.66
2928.36
2325.11
2325.3
2325.81
2326.79
2327.95
2329.41
2331.08
2332.93
2334.92
2337.02
2339.19
2341.39
2343.58
2345.74
2347.87
2349.97
2352.05
2354.14
2356.25
2358.41
2360.62
2362.91
2365.28
2367.73
2370.26
2372.87
2375.53
2378.24
2380.98
2383.74
2386.49
2389.21
2391.87
2394.47
2396.98
2399.37
2401.65
2403.78
2405.77
2407.61
2409.31
2410.92
2412.47
2414.03
2415.65
2417.4
2419.32
2421.47
2423.88
2426.58
2429.58
2432.91
2436.59
2440.64
2445.06
2449.83
2454.94
2460.35
2466.02
2471.89
2477.92
2484.04
2490.21
2496.38
2502.48
2508.48
2514.34
2520.03
2525.55
2530.92
2536.17
2541.36
2546.57
2551.87
2557.36
2563.08
2569.05
2575.23
2581.46
2587.8
2594.32
2600.84
2607.12
2613.01
2618.41
2623.28
2627.64
2631.5
2634.91
2637.93
2640.59
2642.95
2645.07
2647.01
2648.84
2650.61
2652.36
2654.12
2655.92
2657.77
2659.71
2661.82
2664.16
2666.71
2669.46
2672.43
2675.66
2679.17
2683
2687.18
2691.71
2696.61
2701.85
2707.44
2713.36
2719.6
2726.17
2733.09
2740.41
2748.23
2756.7
2766.11
2776.99
2790.06
2805.97
2825.48
2851.22
2883.6
2919.78
2955.26
2986.76
3013.27
3035.38
3054.57
3071.93
3089.71
3107.82
3122.02
3128.04
3126.5
3115.94
3089.94
3042.21
2970.37
2877.86
2775.57
2679.04
2601.94
2550.27
2521.83
2509.98
2507.54
2510.15
2520.25
2539.67
2566.19
2597.23
2631.24
2667.68
2706.39
2747.06
2789.23
2832.69
2877.25
2922.49
2892.23
2327.33
2327.53
2328.03
2329.01
2330.16
2331.62
2333.29
2335.14
2337.13
2339.23
2341.39
2343.58
2345.76
2347.91
2350.03
2352.13
2354.21
2356.29
2358.41
2360.57
2362.79
2365.09
2367.46
2369.93
2372.47
2375.09
2377.77
2380.52
2383.3
2386.1
2388.91
2391.69
2394.43
2397.09
2399.68
2402.16
2404.52
2406.74
2408.82
2410.74
2412.53
2414.2
2415.82
2417.43
2419.09
2420.87
2422.82
2425
2427.42
2430.13
2433.14
2436.47
2440.15
2444.18
2448.58
2453.35
2458.45
2463.87
2469.55
2475.46
2481.52
2487.68
2493.9
2500.1
2506.24
2512.26
2518.14
2523.85
2529.4
2534.85
2540.24
2545.67
2551.25
2557.06
2563.17
2569.58
2576.12
2582.82
2589.79
2596.83
2603.82
2610.57
2616.87
2622.6
2627.73
2632.27
2636.27
2639.77
2642.83
2645.47
2647.76
2649.77
2651.59
2653.3
2654.96
2656.6
2658.24
2659.92
2661.66
2663.45
2665.36
2667.45
2669.76
2672.27
2674.99
2677.94
2681.14
2684.61
2688.4
2692.54
2697.01
2701.85
2707.02
2712.54
2718.37
2724.53
2731.01
2737.85
2745.08
2752.82
2761.2
2770.54
2781.34
2794.34
2810.18
2829.65
2855.35
2887.7
2923.81
2959.19
2990.55
3016.93
3038.9
3057.98
3075.24
3092.98
3110.97
3124.92
3130.74
3128.98
3117.99
3091.31
3042.74
2970.03
2876.83
2774.26
2678
2601.6
2550.82
2523.18
2511.9
2509.79
2512.66
2523.24
2543.12
2570.04
2601.38
2635.58
2672.22
2711.27
2752.18
2794.68
2838.24
2883.03
2931.17
2783.62
2329.63
2329.82
2330.32
2331.3
2332.44
2333.89
2335.56
2337.4
2339.39
2341.49
2343.64
2345.82
2347.99
2350.13
2352.25
2354.34
2356.42
2358.51
2360.62
2362.79
2365.02
2367.32
2369.71
2372.18
2374.74
2377.37
2380.08
2382.86
2385.68
2388.54
2391.39
2394.24
2397.04
2399.79
2402.45
2405.02
2407.47
2409.77
2411.93
2413.94
2415.8
2417.54
2419.21
2420.87
2422.58
2424.39
2426.37
2428.57
2431.01
2433.72
2436.74
2440.07
2443.74
2447.76
2452.15
2456.9
2462
2467.42
2473.12
2479.05
2485.15
2491.36
2497.62
2503.85
2510.01
2516.05
2521.93
2527.68
2533.33
2538.94
2544.63
2550.51
2556.69
2563.23
2570.04
2576.98
2584.25
2591.77
2599.31
2606.67
2613.7
2620.26
2626.24
2631.59
2636.31
2640.47
2644.08
2647.15
2649.76
2652.02
2654.01
2655.8
2657.48
2659.08
2660.66
2662.24
2663.85
2665.51
2667.23
2669.01
2670.92
2673.02
2675.31
2677.81
2680.52
2683.44
2686.62
2690.07
2693.83
2697.93
2702.36
2707.14
2712.25
2717.69
2723.45
2729.53
2735.93
2742.68
2749.84
2757.49
2765.8
2775.06
2785.79
2798.72
2814.5
2833.93
2859.6
2891.92
2927.99
2963.27
2994.5
3020.75
3042.59
3061.57
3078.74
3096.47
3114.33
3128.02
3133.6
3131.6
3120.14
3092.77
3043.36
2969.76
2875.81
2772.94
2676.96
2601.33
2551.5
2524.64
2513.9
2512.13
2515.26
2526.32
2546.69
2574
2605.57
2639.98
2676.98
2716.25
2757.41
2800.29
2844.14
2889.57
2935.56
2565.41
2331.99
2332.18
2332.67
2333.65
2334.78
2336.23
2337.89
2339.73
2341.71
2343.8
2345.94
2348.11
2350.27
2352.41
2354.53
2356.61
2358.7
2360.79
2362.91
2365.09
2367.32
2369.64
2372.03
2374.51
2377.08
2379.74
2382.48
2385.29
2388.15
2391.06
2393.97
2396.88
2399.75
2402.56
2405.31
2407.95
2410.48
2412.87
2415.12
2417.2
2419.13
2420.94
2422.66
2424.37
2426.11
2427.96
2429.96
2432.17
2434.63
2437.36
2440.38
2443.71
2447.37
2451.38
2455.75
2460.49
2465.58
2471.01
2476.73
2482.68
2488.82
2495.07
2501.35
2507.6
2513.77
2519.82
2525.75
2531.6
2537.46
2543.44
2549.68
2556.27
2563.24
2570.43
2577.87
2585.7
2593.69
2601.64
2609.29
2616.48
2623.16
2629.26
2634.77
2639.71
2644.04
2647.71
2650.79
2653.44
2655.76
2657.82
2659.67
2661.38
2663.01
2664.58
2666.15
2667.73
2669.34
2671.01
2672.74
2674.55
2676.47
2678.58
2680.88
2683.37
2686.06
2688.98
2692.15
2695.58
2699.31
2703.37
2707.76
2712.48
2717.53
2722.9
2728.59
2734.59
2740.92
2747.59
2754.67
2762.25
2770.48
2779.67
2790.33
2803.2
2818.91
2838.31
2863.95
2896.25
2932.28
2967.47
2998.59
3024.72
3046.44
3065.32
3082.42
3100.14
3117.87
3131.27
3136.58
3134.32
3122.39
3094.32
3044.04
2969.47
2874.75
2771.58
2675.93
2601.07
2552.19
2526.14
2515.98
2514.57
2518
2529.61
2550.5
2578.17
2609.91
2644.67
2681.94
2721.4
2763.02
2806.05
2850.3
2895.41
2942.22
2256.17
2334.42
2334.6
2335.09
2336.06
2337.19
2338.63
2340.27
2342.11
2344.08
2346.16
2348.29
2350.46
2352.61
2354.75
2356.87
2358.96
2361.05
2363.15
2365.28
2367.46
2369.71
2372.03
2374.43
2376.93
2379.52
2382.2
2384.97
2387.81
2390.72
2393.67
2396.64
2399.6
2402.54
2405.43
2408.24
2410.97
2413.58
2416.04
2418.36
2420.51
2422.51
2424.38
2426.16
2427.91
2429.69
2431.56
2433.59
2435.82
2438.28
2441.02
2444.04
2447.38
2451.03
2455.04
2459.4
2464.12
2469.21
2474.64
2480.37
2486.35
2492.51
2498.78
2505.07
2511.33
2517.51
2523.61