/*--------------------------------*- C++ -*----------------------------------*\
  =========                 |
  \\      /  F ield         | OpenFOAM: The Open Source CFD Toolbox
   \\    /   O peration     | Website:  https://openfoam.org
    \\  /    A nd           | Version:  13
     \\/     M anipulation  |
\*---------------------------------------------------------------------------*/
FoamFile
{
    format      ascii;
    class       volScalarField;
    location    "0.0015";
    object      CH4;
}
// * * * * * * * * * * * * * * * * * * * * * * * * * * * * * * * * * * * * * //

dimensions      [];

internalField   nonuniform List<scalar> 
33334
(
9.26379e-26
9.99734e-26
1.27799e-25
1.97285e-25
3.55175e-25
7.26269e-25
1.67046e-24
4.29757e-24
1.22804e-23
3.8293e-23
1.28195e-22
4.53903e-22
1.65638e-21
6.11659e-21
2.26886e-20
8.36385e-20
3.02607e-19
1.0698e-18
3.69555e-18
1.24227e-17
4.03802e-17
1.27003e-16
3.89285e-16
1.1723e-15
3.47615e-15
1.00422e-14
2.78889e-14
7.41509e-14
1.87749e-13
4.49057e-13
1.00837e-12
2.13113e-12
4.28095e-12
8.25796e-12
1.54016e-11
2.78999e-11
4.93884e-11
8.62572e-11
1.50785e-10
2.68462e-10
4.95066e-10
9.61502e-10
2.01431e-09
4.6517e-09
1.20222e-08
3.62102e-08
1.34227e-07
6.23751e-07
3.84013e-06
3.55649e-05
0.000573603
0.0111685
0.0391741
0.0462392
0.0465156
0.0466319
0.0467492
0.0468618
0.0469676
0.0470674
0.047162
0.0472519
0.0473374
0.047419
0.047497
0.0475716
0.0476432
0.0477119
0.047778
0.0478416
0.0479029
0.0479621
0.0480192
0.0480745
0.048128
0.0481798
0.04823
0.0482788
0.0483261
0.0483721
0.0484168
0.0484603
0.0485027
0.0485439
0.0485841
0.0486233
0.0486616
0.0486989
0.0487354
0.048771
0.0488059
0.0488399
0.0488733
0.0489059
0.0489378
0.0489691
0.0489997
0.0490298
0.0490592
0.049088
0.0491163
0.0491441
0.0491714
0.0491981
0.0492244
0.0492502
0.0492755
0.0493004
0.0493249
0.0493489
0.0493726
0.0493958
0.0494188
0.0494414
0.0494638
0.0494857
0.049507
0.0495276
0.0495473
0.0495666
0.0495863
0.0496081
0.0496345
0.0496686
0.0497131
0.0497684
0.0498303
0.0498905
0.0499397
0.0499729
0.0499907
0.0499978
0.0499997
0.05
0.05
0.05
0.05
0.05
0.05
0.05
0.05
0.05
0.05
0.05
0.05
0.05
0.05
0.05
0.05
0.05
0.05
0.05
0.05
0.05
0.05
0.05
0.05
0.05
0.05
0.05
0.05
0.05
0.05
0.05
0.05
0.05
9.99734e-26
1.07878e-25
1.37869e-25
2.12688e-25
3.82476e-25
7.8099e-25
1.79415e-24
4.60929e-24
1.30966e-23
4.0713e-23
1.36258e-22
4.78789e-22
1.7343e-21
6.40275e-21
2.37068e-20
8.67329e-20
3.12341e-19
1.10476e-18
3.80518e-18
1.26865e-17
4.10566e-17
1.29883e-16
4.0326e-16
1.22436e-15
3.6038e-15
1.0225e-14
2.80457e-14
7.42799e-14
1.88287e-13
4.51253e-13
1.01469e-12
2.14645e-12
4.31583e-12
8.33806e-12
1.5586e-11
2.8316e-11
5.02986e-11
8.82165e-11
1.54985e-10
2.77471e-10
5.14549e-10
1.00554e-09
2.12041e-09
4.92475e-09
1.28116e-08
3.88462e-08
1.42669e-07
6.53523e-07
4.01989e-06
3.71625e-05
0.00060806
0.0117973
0.0395393
0.0462561
0.0465158
0.0466321
0.0467495
0.046862
0.0469677
0.0470675
0.0471621
0.0472519
0.0473374
0.047419
0.047497
0.0475716
0.0476432
0.0477119
0.047778
0.0478416
0.0479029
0.0479621
0.0480192
0.0480745
0.048128
0.0481798
0.04823
0.0482787
0.0483261
0.0483721
0.0484168
0.0484603
0.0485026
0.0485439
0.0485841
0.0486233
0.0486616
0.0486989
0.0487354
0.048771
0.0488059
0.0488399
0.0488732
0.0489059
0.0489378
0.0489691
0.0489997
0.0490297
0.0490592
0.049088
0.0491163
0.0491441
0.0491713
0.0491981
0.0492243
0.0492501
0.0492755
0.0493004
0.0493248
0.0493489
0.0493725
0.0493958
0.0494188
0.0494414
0.0494638
0.0494857
0.049507
0.0495276
0.0495473
0.0495666
0.0495863
0.0496081
0.0496345
0.0496685
0.049713
0.0497683
0.0498303
0.0498905
0.0499397
0.0499729
0.0499907
0.0499978
0.0499997
0.05
0.05
0.05
0.05
0.05
0.05
0.05
0.05
0.05
0.05
0.05
0.05
0.05
0.05
0.05
0.05
0.05
0.05
0.05
0.05
0.05
0.05
0.05
0.05
0.05
0.05
0.05
0.05
0.05
0.05
0.05
0.05
0.05
1.27799e-25
1.37869e-25
1.76033e-25
2.70976e-25
4.8572e-25
9.87912e-25
2.25964e-24
5.77601e-24
1.63301e-23
5.04795e-23
1.67296e-22
5.81991e-22
2.09615e-21
7.68255e-21
2.81525e-20
1.02288e-19
3.66904e-19
1.28899e-18
4.4048e-18
1.46303e-17
4.73884e-17
1.49967e-16
4.62719e-16
1.38617e-15
4.02288e-15
1.1335e-14
3.10743e-14
8.2483e-14
2.09668e-13
5.03938e-13
1.13687e-12
2.41511e-12
4.88317e-12
9.49953e-12
1.78992e-11
3.28004e-11
5.87969e-11
1.04144e-10
1.84871e-10
3.34114e-10
6.24194e-10
1.22744e-09
2.59954e-09
6.03781e-09
1.56918e-08
4.74538e-08
1.71532e-07
7.72688e-07
4.7011e-06
4.34399e-05
0.000708742
0.0132044
0.0402773
0.0462864
0.0465161
0.0466325
0.0467501
0.0468625
0.0469681
0.0470679
0.0471624
0.0472522
0.0473377
0.0474193
0.0474972
0.0475718
0.0476433
0.047712
0.0477781
0.0478417
0.047903
0.0479621
0.0480193
0.0480745
0.048128
0.0481798
0.04823
0.0482788
0.0483261
0.0483721
0.0484168
0.0484603
0.0485026
0.0485439
0.0485841
0.0486233
0.0486616
0.0486989
0.0487354
0.048771
0.0488058
0.0488399
0.0488732
0.0489058
0.0489378
0.048969
0.0489997
0.0490297
0.0490591
0.049088
0.0491163
0.049144
0.0491713
0.049198
0.0492243
0.0492501
0.0492754
0.0493003
0.0493248
0.0493488
0.0493725
0.0493958
0.0494187
0.0494414
0.0494637
0.0494856
0.049507
0.0495275
0.0495473
0.0495665
0.0495862
0.049608
0.0496344
0.0496685
0.0497129
0.0497682
0.0498302
0.0498904
0.0499397
0.0499729
0.0499906
0.0499978
0.0499997
0.05
0.05
0.05
0.05
0.05
0.05
0.05
0.05
0.05
0.05
0.05
0.05
0.05
0.05
0.05
0.05
0.05
0.05
0.05
0.05
0.05
0.05
0.05
0.05
0.05
0.05
0.05
0.05
0.05
0.05
0.05
0.05
0.05
1.97285e-25
2.12688e-25
2.70976e-25
4.15272e-25
7.39607e-25
1.49256e-24
3.38365e-24
8.56851e-24
2.40131e-23
7.34016e-23
2.40289e-22
8.28069e-22
2.9525e-21
1.06896e-20
3.8762e-20
1.39714e-19
4.96812e-19
1.7289e-18
5.86558e-18
1.93837e-17
6.23841e-17
1.95423e-16
5.95588e-16
1.7675e-15
5.11568e-15
1.44492e-14
3.97204e-14
1.05589e-13
2.6867e-13
6.46843e-13
1.46368e-12
3.12284e-12
6.35001e-12
1.24345e-11
2.35938e-11
4.35381e-11
7.85824e-11
1.4015e-10
2.50284e-10
4.53876e-10
8.48189e-10
1.66487e-09
3.50686e-09
8.0644e-09
2.0728e-08
6.17952e-08
2.19821e-07
9.82441e-07
5.8682e-06
5.45882e-05
0.000888144
0.0153424
0.04124
0.0463194
0.0465167
0.0466333
0.0467512
0.0468635
0.046969
0.0470687
0.0471631
0.0472528
0.0473383
0.0474198
0.0474976
0.0475722
0.0476437
0.0477124
0.0477784
0.0478419
0.0479032
0.0479623
0.0480195
0.0480747
0.0481282
0.0481799
0.0482302
0.0482789
0.0483262
0.0483722
0.0484169
0.0484603
0.0485027
0.0485439
0.0485841
0.0486233
0.0486616
0.0486989
0.0487354
0.048771
0.0488058
0.0488399
0.0488732
0.0489058
0.0489378
0.048969
0.0489997
0.0490297
0.0490591
0.049088
0.0491163
0.049144
0.0491713
0.049198
0.0492243
0.0492501
0.0492754
0.0493003
0.0493248
0.0493488
0.0493725
0.0493957
0.0494187
0.0494414
0.0494637
0.0494856
0.0495069
0.0495275
0.0495473
0.0495665
0.0495862
0.049608
0.0496344
0.0496684
0.0497129
0.0497681
0.0498301
0.0498903
0.0499396
0.0499728
0.0499906
0.0499977
0.0499997
0.05
0.05
0.05
0.05
0.05
0.05
0.05
0.05
0.05
0.05
0.05
0.05
0.05
0.05
0.05
0.05
0.05
0.05
0.05
0.05
0.05
0.05
0.05
0.05
0.05
0.05
0.05
0.05
0.05
0.05
0.05
0.05
0.05
3.55175e-25
3.82476e-25
4.8572e-25
7.39607e-25
1.30532e-24
2.6051e-24
5.8315e-24
1.45674e-23
4.02455e-23
1.21188e-22
3.91194e-22
1.33027e-21
4.67475e-21
1.66876e-20
5.97849e-20
2.12999e-19
7.48357e-19
2.57607e-18
8.65844e-18
2.83526e-17
9.03254e-17
2.80008e-16
8.46577e-16
2.50281e-15
7.23961e-15
2.0447e-14
5.61679e-14
1.4915e-13
3.79256e-13
9.13489e-13
2.07079e-12
4.43116e-12
9.04512e-12
1.77879e-11
3.3895e-11
6.27937e-11
1.13746e-10
2.03497e-10
3.63928e-10
6.59042e-10
1.22677e-09
2.39313e-09
4.99089e-09
1.13289e-08
2.87143e-08
8.39947e-08
2.94817e-07
1.29864e-06
7.69209e-06
7.124e-05
0.00117615
0.0181688
0.0422981
0.0463482
0.0465179
0.0466348
0.0467529
0.046865
0.0469704
0.0470699
0.0471642
0.0472538
0.0473392
0.0474206
0.0474984
0.0475729
0.0476443
0.0477129
0.0477789
0.0478424
0.0479036
0.0479627
0.0480198
0.048075
0.0481285
0.0481802
0.0482304
0.0482791
0.0483264
0.0483724
0.048417
0.0484605
0.0485028
0.0485441
0.0485843
0.0486234
0.0486617
0.048699
0.0487355
0.0487711
0.0488059
0.04884
0.0488733
0.0489059
0.0489378
0.0489691
0.0489997
0.0490297
0.0490591
0.049088
0.0491163
0.0491441
0.0491713
0.049198
0.0492243
0.0492501
0.0492754
0.0493003
0.0493248
0.0493488
0.0493725
0.0493957
0.0494187
0.0494414
0.0494637
0.0494856
0.0495069
0.0495275
0.0495472
0.0495665
0.0495862
0.049608
0.0496344
0.0496684
0.0497128
0.0497681
0.0498301
0.0498903
0.0499396
0.0499728
0.0499906
0.0499977
0.0499997
0.05
0.05
0.05
0.05
0.05
0.05
0.05
0.05
0.05
0.05
0.05
0.05
0.05
0.05
0.05
0.05
0.05
0.05
0.05
0.05
0.05
0.05
0.05
0.05
0.05
0.05
0.05
0.05
0.05
0.05
0.05
0.05
0.05
7.26269e-25
7.8099e-25
9.87912e-25
1.49256e-24
2.6051e-24
5.12869e-24
1.13026e-23
2.77548e-23
7.52909e-23
2.22623e-22
7.06074e-22
2.35855e-21
8.14246e-21
2.85936e-20
1.00889e-19
3.54076e-19
1.2261e-18
4.16596e-18
1.38346e-17
4.47744e-17
1.41042e-16
4.33056e-16
1.30032e-15
3.82687e-15
1.10317e-14
3.10588e-14
8.50837e-14
2.25451e-13
5.72516e-13
1.37863e-12
3.12813e-12
6.70719e-12
1.37262e-11
2.70654e-11
5.16963e-11
9.59653e-11
1.74111e-10
3.11701e-10
5.56705e-10
1.00445e-09
1.859e-09
3.59681e-09
7.41607e-09
1.66091e-08
4.14093e-08
1.19237e-07
4.11695e-07
1.78335e-06
1.05255e-05
9.83747e-05
0.00163371
0.0216555
0.0433682
0.0463704
0.0465196
0.0466371
0.0467553
0.0468671
0.0469723
0.0470716
0.0471658
0.0472553
0.0473405
0.0474218
0.0474995
0.0475739
0.0476453
0.0477138
0.0477797
0.0478432
0.0479043
0.0479634
0.0480204
0.0480756
0.048129
0.0481807
0.0482309
0.0482795
0.0483268
0.0483727
0.0484174
0.0484608
0.0485031
0.0485443
0.0485845
0.0486237
0.0486619
0.0486992
0.0487357
0.0487713
0.0488061
0.0488401
0.0488734
0.048906
0.0489379
0.0489692
0.0489998
0.0490298
0.0490592
0.0490881
0.0491164
0.0491441
0.0491714
0.0491981
0.0492244
0.0492501
0.0492755
0.0493004
0.0493248
0.0493489
0.0493725
0.0493958
0.0494187
0.0494414
0.0494637
0.0494856
0.049507
0.0495275
0.0495473
0.0495665
0.0495862
0.049608
0.0496344
0.0496684
0.0497128
0.0497681
0.04983
0.0498902
0.0499396
0.0499728
0.0499906
0.0499977
0.0499997
0.05
0.05
0.05
0.05
0.05
0.05
0.05
0.05
0.05
0.05
0.05
0.05
0.05
0.05
0.05
0.05
0.05
0.05
0.05
0.05
0.05
0.05
0.05
0.05
0.05
0.05
0.05
0.05
0.05
0.05
0.05
0.05
0.05
1.67046e-24
1.79415e-24
2.25964e-24
3.38365e-24
5.8315e-24
1.13026e-23
2.4465e-23
5.88953e-23
1.56427e-22
4.52723e-22
1.40525e-21
4.5939e-21
1.55342e-20
5.34983e-20
1.85258e-19
6.38514e-19
2.17403e-18
7.27328e-18
2.38057e-17
7.59984e-17
2.36492e-16
7.18869e-16
2.14134e-15
6.26071e-15
1.79433e-14
5.02638e-14
1.37133e-13
3.62265e-13
9.18042e-13
2.20825e-12
5.01032e-12
1.07523e-11
2.20331e-11
4.34968e-11
8.31419e-11
1.54365e-10
2.79898e-10
5.00128e-10
8.89822e-10
1.59624e-09
2.93131e-09
5.61328e-09
1.14291e-08
2.52092e-08
6.18767e-08
1.75201e-07
5.95219e-07
2.54965e-06
1.49594e-05
0.000141906
0.00238868
0.0255437
0.044324
0.0463864
0.0465218
0.0466402
0.0467584
0.0468699
0.0469748
0.047074
0.0471679
0.0472572
0.0473423
0.0474235
0.047501
0.0475753
0.0476466
0.047715
0.0477808
0.0478442
0.0479053
0.0479643
0.0480213
0.0480764
0.0481297
0.0481814
0.0482315
0.0482801
0.0483274
0.0483733
0.0484179
0.0484613
0.0485036
0.0485448
0.0485849
0.0486241
0.0486623
0.0486995
0.048736
0.0487716
0.0488064
0.0488404
0.0488737
0.0489062
0.0489381
0.0489694
0.049
0.04903
0.0490594
0.0490882
0.0491165
0.0491443
0.0491715
0.0491982
0.0492245
0.0492502
0.0492756
0.0493005
0.0493249
0.0493489
0.0493726
0.0493958
0.0494188
0.0494414
0.0494638
0.0494857
0.049507
0.0495276
0.0495473
0.0495666
0.0495863
0.049608
0.0496344
0.0496684
0.0497128
0.0497681
0.04983
0.0498903
0.0499396
0.0499728
0.0499906
0.0499977
0.0499997
0.05
0.05
0.05
0.05
0.05
0.05
0.05
0.05
0.05
0.05
0.05
0.05
0.05
0.05
0.05
0.05
0.05
0.05
0.05
0.05
0.05
0.05
0.05
0.05
0.05
0.05
0.05
0.05
0.05
0.05
0.05
0.05
0.05
4.29757e-24
4.60929e-24
5.77601e-24
8.56851e-24
1.45674e-23
2.77548e-23
5.88953e-23
1.38699e-22
3.59841e-22
1.01636e-21
3.07739e-21
9.8153e-21
3.24106e-20
1.09097e-19
3.69571e-19
1.24756e-18
4.16657e-18
1.36909e-17
4.40627e-17
1.3852e-16
4.25304e-16
1.27818e-15
3.76985e-15
1.09236e-14
3.10526e-14
8.63767e-14
2.34333e-13
6.1637e-13
1.55686e-12
3.73594e-12
8.46439e-12
1.81536e-11
3.71884e-11
7.33717e-11
1.40063e-10
2.59453e-10
4.68795e-10
8.3335e-10
1.47258e-09
2.61943e-09
4.76102e-09
9.00402e-09
1.80686e-08
3.92295e-08
9.47255e-08
2.64215e-07
8.86245e-07
3.73864e-06
2.21102e-05
0.000215322
0.00363584
0.0296102
0.0450924
0.0463972
0.0465248
0.0466443
0.0467623
0.0468735
0.046978
0.0470769
0.0471707
0.0472598
0.0473446
0.0474256
0.047503
0.0475772
0.0476483
0.0477166
0.0477824
0.0478456
0.0479067
0.0479656
0.0480225
0.0480775
0.0481308
0.0481824
0.0482324
0.048281
0.0483282
0.048374
0.0484186
0.048462
0.0485042
0.0485454
0.0485855
0.0486246
0.0486628
0.0487
0.0487364
0.048772
0.0488068
0.0488408
0.048874
0.0489066
0.0489385
0.0489697
0.0490003
0.0490303
0.0490597
0.0490885
0.0491168
0.0491445
0.0491717
0.0491984
0.0492247
0.0492504
0.0492757
0.0493006
0.0493251
0.0493491
0.0493727
0.049396
0.0494189
0.0494416
0.0494639
0.0494858
0.0495071
0.0495276
0.0495474
0.0495666
0.0495863
0.0496081
0.0496344
0.0496685
0.0497129
0.0497681
0.0498301
0.0498903
0.0499396
0.0499728
0.0499906
0.0499977
0.0499997
0.05
0.05
0.05
0.05
0.05
0.05
0.05
0.05
0.05
0.05
0.05
0.05
0.05
0.05
0.05
0.05
0.05
0.05
0.05
0.05
0.05
0.05
0.05
0.05
0.05
0.05
0.05
0.05
0.05
0.05
0.05
0.05
0.05
1.22804e-23
1.30966e-23
1.63301e-23
2.40131e-23
4.02455e-23
7.52909e-23
1.56427e-22
3.59841e-22
9.10188e-22
2.50299e-21
7.37363e-21
2.28836e-20
7.35651e-20
2.4127e-19
7.97251e-19
2.62922e-18
8.59179e-18
2.76599e-17
8.73437e-17
2.69893e-16
8.16074e-16
2.41927e-15
7.0463e-15
2.01815e-14
5.67728e-14
1.56512e-13
4.21516e-13
1.10223e-12
2.77059e-12
6.62198e-12
1.49567e-11
3.20017e-11
6.54076e-11
1.28671e-10
2.44648e-10
4.50766e-10
8.08912e-10
1.42575e-09
2.4946e-09
4.38846e-09
7.87794e-09
1.46877e-08
2.90189e-08
6.19556e-08
1.4741e-07
4.05151e-07
1.34382e-06
5.63516e-06
3.37884e-05
0.000339936
0.00570078
0.033583
0.045662
0.046405
0.0465287
0.0466493
0.0467671
0.0468777
0.046982
0.0470805
0.047174
0.0472629
0.0473475
0.0474283
0.0475056
0.0475795
0.0476505
0.0477187
0.0477843
0.0478475
0.0479084
0.0479672
0.048024
0.0480789
0.0481321
0.0481837
0.0482337
0.0482822
0.0483293
0.0483751
0.0484196
0.0484629
0.0485051
0.0485462
0.0485863
0.0486254
0.0486635
0.0487007
0.0487371
0.0487726
0.0488074
0.0488413
0.0488746
0.0489071
0.048939
0.0489702
0.0490007
0.0490307
0.0490601
0.0490889
0.0491171
0.0491448
0.049172
0.0491987
0.049225
0.0492507
0.049276
0.0493009
0.0493253
0.0493493
0.0493729
0.0493962
0.0494191
0.0494417
0.0494641
0.049486
0.0495073
0.0495278
0.0495475
0.0495668
0.0495864
0.0496082
0.0496345
0.0496685
0.049713
0.0497682
0.0498301
0.0498903
0.0499396
0.0499728
0.0499906
0.0499977
0.0499997
0.05
0.05
0.05
0.05
0.05
0.05
0.05
0.05
0.05
0.05
0.05
0.05
0.05
0.05
0.05
0.05
0.05
0.05
0.05
0.05
0.05
0.05
0.05
0.05
0.05
0.05
0.05
0.05
0.05
0.05
0.05
0.05
0.05
3.8293e-23
4.0713e-23
5.04795e-23
7.34016e-23
1.21188e-22
2.22623e-22
4.52723e-22
1.01636e-21
2.50299e-21
6.69025e-21
1.91383e-20
5.76581e-20
1.79979e-19
5.73578e-19
1.8441e-18
5.92646e-18
1.89014e-17
5.9476e-17
1.83866e-16
5.57182e-16
1.65491e-15
4.82587e-15
1.38428e-14
3.90993e-14
1.08648e-13
2.96387e-13
7.91193e-13
2.05335e-12
5.12685e-12
1.21805e-11
2.73696e-11
5.82966e-11
1.18593e-10
2.31961e-10
4.37889e-10
7.99867e-10
1.42113e-09
2.47655e-09
4.27999e-09
7.4304e-09
1.3153e-08
2.41518e-08
4.69587e-08
9.86193e-08
2.31306e-07
6.28303e-07
2.06774e-06
8.68839e-06
5.31561e-05
0.000566376
0.00907633
0.0372547
0.0460076
0.0464119
0.0465337
0.0466553
0.0467727
0.0468828
0.0469866
0.0470849
0.047178
0.0472666
0.047351
0.0474316
0.0475086
0.0475824
0.0476532
0.0477212
0.0477867
0.0478497
0.0479105
0.0479692
0.0480259
0.0480807
0.0481338
0.0481853
0.0482352
0.0482836
0.0483307
0.0483764
0.0484209
0.0484641
0.0485063
0.0485473
0.0485873
0.0486264
0.0486645
0.0487016
0.048738
0.0487735
0.0488082
0.0488421
0.0488753
0.0489078
0.0489396
0.0489708
0.0490014
0.0490313
0.0490606
0.0490894
0.0491176
0.0491453
0.0491725
0.0491992
0.0492254
0.0492511
0.0492764
0.0493013
0.0493257
0.0493497
0.0493733
0.0493965
0.0494194
0.049442
0.0494643
0.0494862
0.0495075
0.049528
0.0495477
0.049567
0.0495866
0.0496084
0.0496347
0.0496687
0.0497131
0.0497683
0.0498302
0.0498904
0.0499396
0.0499728
0.0499906
0.0499977
0.0499997
0.05
0.05
0.05
0.05
0.05
0.05
0.05
0.05
0.05
0.05
0.05
0.05
0.05
0.05
0.05
0.05
0.05
0.05
0.05
0.05
0.05
0.05
0.05
0.05
0.05
0.05
0.05
0.05
0.05
0.05
0.05
0.05
0.05
1.28195e-22
1.36258e-22
1.67296e-22
2.40289e-22
3.91194e-22
7.06074e-22
1.40525e-21
3.07739e-21
7.37363e-21
1.91383e-20
5.30913e-20
1.55e-19
4.68845e-19
1.44883e-18
4.52204e-18
1.41285e-17
4.38741e-17
1.34635e-16
4.06556e-16
1.20537e-15
3.50783e-15
1.00372e-14
2.82948e-14
7.86805e-14
2.15672e-13
5.81485e-13
1.53652e-12
3.95097e-12
9.77794e-12
2.30341e-11
5.13533e-11
1.08589e-10
2.19234e-10
4.25033e-10
7.94118e-10
1.4338e-09
2.51572e-09
4.32583e-09
7.37158e-09
1.26101e-08
2.19861e-08
3.97521e-08
7.60831e-08
1.57381e-07
3.64626e-07
9.80938e-07
3.22114e-06
1.36898e-05
8.67631e-05
0.000990716
0.0142258
0.0404715
0.0461848
0.0464186
0.0465399
0.0466623
0.0467791
0.0468887
0.046992
0.0470899
0.0471827
0.047271
0.0473551
0.0474354
0.0475122
0.0475858
0.0476564
0.0477242
0.0477895
0.0478524
0.047913
0.0479716
0.0480282
0.0480829
0.0481359
0.0481872
0.0482371
0.0482854
0.0483324
0.048378
0.0484224
0.0484656
0.0485077
0.0485487
0.0485886
0.0486276
0.0486656
0.0487028
0.0487391
0.0487745
0.0488092
0.0488431
0.0488762
0.0489087
0.0489405
0.0489716
0.0490021
0.0490321
0.0490614
0.0490901
0.0491183
0.049146
0.0491731
0.0491998
0.049226
0.0492517
0.049277
0.0493018
0.0493262
0.0493502
0.0493737
0.0493969
0.0494198
0.0494424
0.0494647
0.0494866
0.0495079
0.0495284
0.049548
0.0495673
0.0495869
0.0496086
0.049635
0.0496689
0.0497133
0.0497685
0.0498304
0.0498905
0.0499397
0.0499729
0.0499906
0.0499977
0.0499997
0.05
0.05
0.05
0.05
0.05
0.05
0.05
0.05
0.05
0.05
0.05
0.05
0.05
0.05
0.05
0.05
0.05
0.05
0.05
0.05
0.05
0.05
0.05
0.05
0.05
0.05
0.05
0.05
0.05
0.05
0.05
0.05
0.05
4.53903e-22
4.78789e-22
5.81991e-22
8.28069e-22
1.33027e-21
2.35855e-21
4.5939e-21
9.8153e-21
2.28836e-20
5.76581e-20
1.55e-19
4.3807e-19
1.28241e-18
3.83687e-18
1.16054e-17
3.51826e-17
1.06167e-16
3.17093e-16
9.33466e-16
2.70247e-15
7.6918e-15
2.15612e-14
5.96485e-14
1.63086e-13
4.40454e-13
1.17236e-12
3.06237e-12
7.78798e-12
1.90583e-11
4.43886e-11
9.78828e-11
2.0483e-10
4.09146e-10
7.83941e-10
1.44575e-09
2.57408e-09
4.45139e-09
7.54155e-09
1.26572e-08
2.13165e-08
3.6591e-08
6.51754e-08
1.22892e-07
2.51145e-07
5.76454e-07
1.54261e-06
5.08129e-06
2.20714e-05
0.000147504
0.00179876
0.0208965
0.0429804
0.0462636
0.0464256
0.0465476
0.0466702
0.0467863
0.0468953
0.0469982
0.0470956
0.047188
0.0472759
0.0473597
0.0474397
0.0475163
0.0475896
0.04766
0.0477277
0.0477928
0.0478555
0.047916
0.0479744
0.0480308
0.0480854
0.0481383
0.0481896
0.0482393
0.0482875
0.0483344
0.0483799
0.0484242
0.0484674
0.0485094
0.0485503
0.0485902
0.0486291
0.0486671
0.0487042
0.0487404
0.0487758
0.0488104
0.0488443
0.0488774
0.0489098
0.0489416
0.0489727
0.0490031
0.049033
0.0490623
0.049091
0.0491192
0.0491468
0.0491739
0.0492006
0.0492267
0.0492524
0.0492777
0.0493025
0.0493268
0.0493508
0.0493743
0.0493975
0.0494204
0.049443
0.0494652
0.0494871
0.0495083
0.0495288
0.0495485
0.0495677
0.0495873
0.049609
0.0496353
0.0496693
0.0497136
0.0497688
0.0498306
0.0498906
0.0499398
0.0499729
0.0499906
0.0499978
0.0499997
0.05
0.05
0.05
0.05
0.05
0.05
0.05
0.05
0.05
0.05
0.05
0.05
0.05
0.05
0.05
0.05
0.05
0.05
0.05
0.05
0.05
0.05
0.05
0.05
0.05
0.05
0.05
0.05
0.05
0.05
0.05
0.05
0.05
1.65638e-21
1.7343e-21
2.09615e-21
2.9525e-21
4.67475e-21
8.14246e-21
1.55342e-20
3.24106e-20
7.35651e-20
1.79979e-19
4.68845e-19
1.28241e-18
3.63134e-18
1.05107e-17
3.07763e-17
9.04163e-17
2.64763e-16
7.6858e-16
2.20268e-15
6.21942e-15
1.72957e-14
4.74548e-14
1.28723e-13
3.45683e-13
9.18747e-13
2.41087e-12
6.21508e-12
1.55984e-11
3.7645e-11
8.64326e-11
1.87936e-10
3.88e-10
7.64623e-10
1.44438e-09
2.62394e-09
4.59908e-09
7.82737e-09
1.30517e-08
2.1558e-08
3.57373e-08
6.0416e-08
1.0611e-07
1.97409e-07
3.99841e-07
9.12981e-07
2.44651e-06
8.13635e-06
3.66216e-05
0.000261552
0.00340881
0.0278913
0.0446683
0.0462972
0.0464333
0.0465566
0.046679
0.0467943
0.0469027
0.047005
0.0471019
0.0471939
0.0472815
0.0473649
0.0474446
0.0475209
0.047594
0.0476642
0.0477316
0.0477965
0.047859
0.0479193
0.0479776
0.0480339
0.0480883
0.0481411
0.0481922
0.0482418
0.0482899
0.0483367
0.0483822
0.0484264
0.0484694
0.0485114
0.0485522
0.048592
0.0486309
0.0486688
0.0487058
0.048742
0.0487773
0.0488119
0.0488457
0.0488788
0.0489111
0.0489428
0.0489739
0.0490043
0.0490342
0.0490634
0.0490921
0.0491202
0.0491478
0.0491749
0.0492015
0.0492276
0.0492533
0.0492785
0.0493033
0.0493276
0.0493515
0.0493751
0.0493982
0.0494211
0.0494436
0.0494659
0.0494877
0.0495089
0.0495293
0.049549
0.0495682
0.0495878
0.0496095
0.0496357
0.0496697
0.049714
0.0497692
0.0498309
0.0498909
0.0499399
0.049973
0.0499907
0.0499978
0.0499997
0.05
0.05
0.05
0.05
0.05
0.05
0.05
0.05
0.05
0.05
0.05
0.05
0.05
0.05
0.05
0.05
0.05
0.05
0.05
0.05
0.05
0.05
0.05
0.05
0.05
0.05
0.05
0.05
0.05
0.05
0.05
0.05
0.05
6.11659e-21
6.40275e-21
7.68255e-21
1.06896e-20
1.66876e-20
2.85936e-20
5.34983e-20
1.09097e-19
2.4127e-19
5.73578e-19
1.44883e-18
3.83687e-18
1.05107e-17
2.94281e-17
8.33893e-17
2.37299e-16
6.73887e-16
1.89998e-15
5.2974e-15
1.45795e-14
3.95962e-14
1.06291e-13
2.82517e-13
7.44514e-13
1.94481e-12
5.02311e-12
1.27537e-11
3.15103e-11
7.47925e-11
1.68818e-10
3.61002e-10
7.3346e-10
1.42279e-09
2.64469e-09
4.72517e-09
8.14283e-09
1.36248e-08
2.23415e-08
3.63007e-08
5.92446e-08
9.87132e-08
1.71148e-07
3.14892e-07
6.34296e-07
1.44686e-06
3.9161e-06
1.32414e-05
6.2741e-05
0.000490428
0.00658959
0.0341615
0.045615
0.046314
0.0464419
0.0465668
0.0466887
0.0468031
0.0469108
0.0470125
0.0471089
0.0472005
0.0472876
0.0473707
0.0474501
0.047526
0.0475989
0.0476688
0.047736
0.0478006
0.047863
0.0479231
0.0479812
0.0480373
0.0480916
0.0481442
0.0481952
0.0482447
0.0482927
0.0483394
0.0483847
0.0484288
0.0484718
0.0485136
0.0485544
0.0485941
0.0486329
0.0486707
0.0487077
0.0487438
0.0487791
0.0488136
0.0488473
0.0488803
0.0489127
0.0489443
0.0489753
0.0490057
0.0490355
0.0490647
0.0490934
0.0491215
0.049149
0.0491761
0.0492026
0.0492287
0.0492544
0.0492795
0.0493043
0.0493286
0.0493525
0.049376
0.0493991
0.0494219
0.0494444
0.0494666
0.0494884
0.0495096
0.04953
0.0495496
0.0495688
0.0495884
0.04961
0.0496363
0.0496702
0.0497146
0.0497697
0.0498313
0.0498912
0.0499401
0.0499731
0.0499907
0.0499978
0.0499997
0.05
0.05
0.05
0.05
0.05
0.05
0.05
0.05
0.05
0.05
0.05
0.05
0.05
0.05
0.05
0.05
0.05
0.05
0.05
0.05
0.05
0.05
0.05
0.05
0.05
0.05
0.05
0.05
0.05
0.05
0.05
0.05
0.05
2.26886e-20
2.37068e-20
2.81525e-20
3.8762e-20
5.97849e-20
1.00889e-19
1.85258e-19
3.69571e-19
7.97251e-19
1.8441e-18
4.52204e-18
1.16054e-17
3.07763e-17
8.33893e-17
2.28754e-16
6.30676e-16
1.73705e-15
4.75646e-15
1.28993e-14
3.45941e-14
9.17254e-14
2.40791e-13
6.26761e-13
1.61945e-12
4.15279e-12
1.05407e-11
2.63047e-11
6.38208e-11
1.48599e-10
3.28955e-10
6.90424e-10
1.37804e-09
2.62701e-09
4.79747e-09
8.41753e-09
1.42448e-08
2.34114e-08
3.77279e-08
6.02919e-08
9.69277e-08
1.59338e-07
2.73144e-07
4.98619e-07
1.00308e-06
2.29761e-06
6.32821e-06
2.19568e-05
0.000111647
0.000979525
0.0123775
0.0392387
0.0460302
0.0463265
0.0464519
0.0465782
0.0466991
0.0468126
0.0469195
0.0470206
0.0471165
0.0472076
0.0472943
0.047377
0.047456
0.0475317
0.0476042
0.0476738
0.0477408
0.0478052
0.0478673
0.0479272
0.0479851
0.0480411
0.0480952
0.0481477
0.0481986
0.0482479
0.0482958
0.0483423
0.0483876
0.0484316
0.0484744
0.0485162
0.0485568
0.0485965
0.0486352
0.048673
0.0487098
0.0487459
0.0487811
0.0488155
0.0488492
0.0488822
0.0489144
0.048946
0.048977
0.0490073
0.0490371
0.0490662
0.0490948
0.0491229
0.0491504
0.0491774
0.0492039
0.04923
0.0492556
0.0492807
0.0493054
0.0493297
0.0493536
0.049377
0.0494001
0.0494229
0.0494454
0.0494676
0.0494893
0.0495105
0.0495309
0.0495504
0.0495695
0.0495891
0.0496107
0.049637
0.0496709
0.0497152
0.0497703
0.0498319
0.0498916
0.0499404
0.0499732
0.0499908
0.0499978
0.0499997
0.05
0.05
0.05
0.05
0.05
0.05
0.05
0.05
0.05
0.05
0.05
0.05
0.05
0.05
0.05
0.05
0.05
0.05
0.05
0.05
0.05
0.05
0.05
0.05
0.05
0.05
0.05
0.05
0.05
0.05
0.05
0.05
0.05
8.36385e-20
8.67329e-20
1.02288e-19
1.39714e-19
2.12999e-19
3.54076e-19
6.38514e-19
1.24756e-18
2.62922e-18
5.92646e-18
1.41285e-17
3.51826e-17
9.04163e-17
2.37299e-16
6.30676e-16
1.68581e-15
4.506e-15
1.19879e-14
3.16272e-14
8.26412e-14
2.13862e-13
5.48787e-13
1.3981e-12
3.5395e-12
8.90201e-12
2.21764e-11
5.42963e-11
1.29072e-10
2.94108e-10
6.37223e-10
1.31056e-09
2.56617e-09
4.80085e-09
8.60073e-09
1.47976e-08
2.456e-08
3.9614e-08
6.27157e-08
9.86072e-08
1.56305e-07
2.53944e-07
4.31331e-07
7.84801e-07
1.58396e-06
3.67178e-06
1.03252e-05
3.75609e-05
0.000208122
0.00205998
0.0209889
0.042869
0.0461698
0.0463381
0.0464639
0.0465905
0.0467103
0.0468228
0.0469289
0.0470294
0.0471247
0.0472152
0.0473015
0.0473838
0.0474624
0.0475377
0.0476099
0.0476793
0.047746
0.0478102
0.047872
0.0479318
0.0479894
0.0480452
0.0480992
0.0481515
0.0482022
0.0482514
0.0482992
0.0483456
0.0483907
0.0484346
0.0484774
0.048519
0.0485596
0.0485991
0.0486377
0.0486754
0.0487122
0.0487482
0.0487833
0.0488177
0.0488513
0.0488842
0.0489164
0.048948
0.0489789
0.0490091
0.0490388
0.0490679
0.0490965
0.0491245
0.049152
0.0491789
0.0492054
0.0492314
0.049257
0.0492821
0.0493068
0.049331
0.0493548
0.0493782
0.0494013
0.0494241
0.0494465
0.0494686
0.0494903
0.0495115
0.0495318
0.0495513
0.0495704
0.0495899
0.0496116
0.0496378
0.0496718
0.0497161
0.049771
0.0498325
0.0498921
0.0499407
0.0499734
0.0499908
0.0499978
0.0499997
0.05
0.05
0.05
0.05
0.05
0.05
0.05
0.05
0.05
0.05
0.05
0.05
0.05
0.05
0.05
0.05
0.05
0.05
0.05
0.05
0.05
0.05
0.05
0.05
0.05
0.05
0.05
0.05
0.05
0.05
0.05
0.05
0.05
3.02607e-19
3.12341e-19
3.66904e-19
4.96812e-19
7.48357e-19
1.2261e-18
2.17403e-18
4.16657e-18
8.59179e-18
1.89014e-17
4.38741e-17
1.06167e-16
2.64763e-16
6.73887e-16
1.73705e-15
4.506e-15
1.16972e-14
3.02514e-14
7.76638e-14
1.97726e-13
4.99332e-13
1.25221e-12
3.12156e-12
7.74128e-12
1.90891e-11
4.66323e-11
1.11841e-10
2.59956e-10
5.78471e-10
1.22443e-09
2.46388e-09
4.72578e-09
8.66142e-09
1.51954e-08
2.55982e-08
4.16254e-08
6.58593e-08
1.02447e-07
1.58631e-07
2.48368e-07
3.99698e-07
6.7507e-07
1.22912e-06
2.50054e-06
5.92278e-06
1.7098e-05
6.65626e-05
0.000414178
0.00453926
0.0299681
0.0449289
0.0462136
0.0463501
0.0464776
0.0466036
0.0467221
0.0468336
0.046939
0.0470387
0.0471334
0.0472234
0.0473091
0.047391
0.0474693
0.0475442
0.0476161
0.0476851
0.0477515
0.0478155
0.0478771
0.0479366
0.0479941
0.0480497
0.0481035
0.0481556
0.0482062
0.0482552
0.0483028
0.0483491
0.0483941
0.0484379
0.0484805
0.0485221
0.0485625
0.048602
0.0486405
0.0486781
0.0487148
0.0487507
0.0487858
0.0488201
0.0488536
0.0488865
0.0489186
0.0489501
0.0489809
0.0490112
0.0490408
0.0490698
0.0490983
0.0491263
0.0491537
0.0491807
0.0492071
0.0492331
0.0492586
0.0492836
0.0493082
0.0493324
0.0493562
0.0493796
0.0494026
0.0494253
0.0494478
0.0494699
0.0494915
0.0495126
0.0495329
0.0495524
0.0495714
0.0495909
0.0496126
0.0496388
0.0496727
0.049717
0.049772
0.0498333
0.0498927
0.0499411
0.0499736
0.0499909
0.0499978
0.0499997
0.05
0.05
0.05
0.05
0.05
0.05
0.05
0.05
0.05
0.05
0.05
0.05
0.05
0.05
0.05
0.05
0.05
0.05
0.05
0.05
0.05
0.05
0.05
0.05
0.05
0.05
0.05
0.05
0.05
0.05
0.05
0.05
0.05
1.0698e-18
1.10476e-18
1.28899e-18
1.7289e-18
2.57607e-18
4.16596e-18
7.27328e-18
1.36909e-17
2.76599e-17
5.9476e-17
1.34635e-16
3.17093e-16
7.6858e-16
1.89998e-15
4.75646e-15
1.19879e-14
3.02514e-14
7.61066e-14
1.90234e-13
4.72067e-13
1.16361e-12
2.85214e-12
6.95836e-12
1.69078e-11
4.08766e-11
9.784e-11
2.29454e-10
5.2035e-10
1.12858e-09
2.32984e-09
4.57941e-09
8.58659e-09
1.53824e-08
2.63738e-08
4.34493e-08
6.91939e-08
1.07414e-07
1.64296e-07
2.50919e-07
3.88881e-07
6.21752e-07
1.04827e-06
1.91866e-06
3.96156e-06
9.63748e-06
2.90885e-05
0.000124025
0.000886783
0.00998068
0.0372505
0.045809
0.0462339
0.0463634
0.0464927
0.0466175
0.0467347
0.0468452
0.0469496
0.0470486
0.0471426
0.047232
0.0473172
0.0473987
0.0474765
0.0475511
0.0476226
0.0476914
0.0477575
0.0478212
0.0478826
0.0479418
0.0479991
0.0480545
0.0481081
0.0481601
0.0482104
0.0482593
0.0483068
0.0483529
0.0483978
0.0484415
0.048484
0.0485254
0.0485658
0.0486051
0.0486435
0.048681
0.0487177
0.0487535
0.0487885
0.0488227
0.0488561
0.0488889
0.048921
0.0489524
0.0489832
0.0490134
0.0490429
0.0490719
0.0491004
0.0491283
0.0491557
0.0491825
0.0492089
0.0492348
0.0492603
0.0492853
0.0493099
0.0493341
0.0493578
0.0493811
0.0494041
0.0494268
0.0494492
0.0494712
0.0494929
0.0495139
0.0495341
0.0495536
0.0495726
0.0495921
0.0496137
0.0496399
0.0496739
0.0497182
0.049773
0.0498343
0.0498934
0.0499416
0.0499738
0.049991
0.0499978
0.0499997
0.05
0.05
0.05
0.05
0.05
0.05
0.05
0.05
0.05
0.05
0.05
0.05
0.05
0.05
0.05
0.05
0.05
0.05
0.05
0.05
0.05
0.05
0.05
0.05
0.05
0.05
0.05
0.05
0.05
0.05
0.05
0.05
0.05
3.69555e-18
3.80518e-18
4.4048e-18
5.86558e-18
8.65844e-18
1.38346e-17
2.38057e-17
4.40627e-17
8.73437e-17
1.83866e-16
4.06556e-16
9.33466e-16
2.20268e-15
5.2974e-15
1.28993e-14
3.16272e-14
7.76638e-14
1.90234e-13
4.63375e-13
1.12175e-12
2.70098e-12
6.47552e-12
1.5474e-11
3.68644e-11
8.73698e-11
2.04609e-10
4.6806e-10
1.03299e-09
2.17937e-09
4.38097e-09
8.39532e-09
1.5353e-08
2.68185e-08
4.4858e-08
7.222e-08
1.12658e-07
1.71724e-07
2.58579e-07
3.90236e-07
6.00196e-07
9.56165e-07
1.61831e-06
2.99491e-06
6.33375e-06
1.59358e-05
5.13907e-05
0.0002455
0.0020472
0.0195624
0.0422837
0.0460653
0.0462502
0.046379
0.0465089
0.0466321
0.0467479
0.0468573
0.0469608
0.0470589
0.0471522
0.0472411
0.0473258
0.0474067
0.0474842
0.0475584
0.0476296
0.047698
0.0477638
0.0478272
0.0478883
0.0479474
0.0480044
0.0480596
0.048113
0.0481648
0.048215
0.0482637
0.048311
0.048357
0.0484017
0.0484453
0.0484876