/*--------------------------------*- C++ -*----------------------------------*\
  =========                 |
  \\      /  F ield         | OpenFOAM: The Open Source CFD Toolbox
   \\    /   O peration     | Website:  https://openfoam.org
    \\  /    A nd           | Version:  13
     \\/     M anipulation  |
\*---------------------------------------------------------------------------*/
FoamFile
{
    format      ascii;
    class       volScalarField;
    location    "0.0015";
    object      CO2;
}
// * * * * * * * * * * * * * * * * * * * * * * * * * * * * * * * * * * * * * //

dimensions      [];

internalField   nonuniform List<scalar> 
33334
(
0.137164
0.137164
0.137164
0.137164
0.137164
0.137164
0.137164
0.137164
0.137164
0.137164
0.137164
0.137164
0.137164
0.137164
0.137164
0.137164
0.137164
0.137164
0.137164
0.137164
0.137164
0.137164
0.137164
0.137164
0.137164
0.137164
0.137164
0.137164
0.137164
0.137164
0.137164
0.137164
0.137164
0.137164
0.137164
0.137164
0.137164
0.137164
0.137164
0.137164
0.137164
0.137164
0.137164
0.137164
0.137164
0.137164
0.137164
0.137163
0.137154
0.137067
0.135591
0.106526
0.0296986
0.010317
0.00955866
0.00923957
0.00891777
0.00860899
0.00831885
0.00804494
0.00778541
0.0075389
0.00730425
0.00708044
0.00686654
0.00666178
0.00646546
0.00627695
0.00609569
0.00592118
0.00575297
0.00559065
0.00543385
0.00528224
0.0051355
0.00499336
0.00485555
0.00472184
0.00459201
0.00446585
0.00434319
0.00422385
0.00410766
0.00399448
0.00388417
0.00377659
0.00367164
0.00356918
0.00346913
0.00337136
0.0032758
0.00318235
0.00309093
0.00300146
0.00291386
0.00282807
0.00274403
0.00266166
0.00258093
0.00250176
0.00242411
0.00234794
0.00227319
0.00219981
0.00212777
0.002057
0.00198749
0.00191919
0.00185208
0.00178612
0.00172126
0.0016574
0.00159442
0.00153227
0.00147098
0.00141085
0.00135234
0.00129595
0.00124179
0.00118892
0.00113486
0.00107504
0.00100265
0.000909165
0.00078708
0.000635388
0.000465401
0.000300354
0.000165304
7.43372e-05
2.56289e-05
6.1507e-06
8.93412e-07
6.49811e-08
1.8754e-09
1.69666e-11
3.14569e-13
2.78618e-13
2.78404e-13
2.78021e-13
2.765e-13
2.7239e-13
2.64681e-13
2.53567e-13
2.40422e-13
2.27e-13
2.14546e-13
2.03454e-13
1.93488e-13
1.84185e-13
1.75124e-13
1.66047e-13
1.56863e-13
1.47598e-13
1.38337e-13
1.29164e-13
1.20137e-13
1.11276e-13
1.02572e-13
9.39996e-14
8.55286e-14
7.71315e-14
6.87916e-14
6.0505e-14
5.22733e-14
4.4092e-14
0.137164
0.137164
0.137164
0.137164
0.137164
0.137164
0.137164
0.137164
0.137164
0.137164
0.137164
0.137164
0.137164
0.137164
0.137164
0.137164
0.137164
0.137164
0.137164
0.137164
0.137164
0.137164
0.137164
0.137164
0.137164
0.137164
0.137164
0.137164
0.137164
0.137164
0.137164
0.137164
0.137164
0.137164
0.137164
0.137164
0.137164
0.137164
0.137164
0.137164
0.137164
0.137164
0.137164
0.137164
0.137164
0.137164
0.137164
0.137163
0.137153
0.137062
0.135496
0.104801
0.0286967
0.0102705
0.00955829
0.00923921
0.00891713
0.00860848
0.00831848
0.00804468
0.00778523
0.00753878
0.00730416
0.00708037
0.00686649
0.00666175
0.00646544
0.00627694
0.00609569
0.00592119
0.00575298
0.00559067
0.00543388
0.00528227
0.00513554
0.0049934
0.0048556
0.00472189
0.00459206
0.00446591
0.00434325
0.00422391
0.00410772
0.00399455
0.00388424
0.00377667
0.00367171
0.00356926
0.00346921
0.00337145
0.00327589
0.00318244
0.00309102
0.00300155
0.00291395
0.00282816
0.00274411
0.00266175
0.00258101
0.00250184
0.0024242
0.00234803
0.00227327
0.0021999
0.00212785
0.00205709
0.00198757
0.00191927
0.00185216
0.0017862
0.00172134
0.00165748
0.0015945
0.00153235
0.00147107
0.00141093
0.00135242
0.00129603
0.00124186
0.001189
0.00113493
0.00107513
0.00100276
0.000909306
0.000787253
0.000635578
0.00046558
0.000300494
0.000165393
7.43823e-05
2.56462e-05
6.15536e-06
8.94211e-07
6.50529e-08
1.87802e-09
1.69958e-11
3.14641e-13
2.78612e-13
2.78398e-13
2.78015e-13
2.76495e-13
2.72387e-13
2.6468e-13
2.53568e-13
2.40423e-13
2.27001e-13
2.14546e-13
2.03454e-13
1.93488e-13
1.84184e-13
1.75123e-13
1.66046e-13
1.56862e-13
1.47598e-13
1.38337e-13
1.29164e-13
1.20137e-13
1.11275e-13
1.02571e-13
9.39991e-14
8.55281e-14
7.71311e-14
6.87912e-14
6.05046e-14
5.2273e-14
4.40917e-14
0.137164
0.137164
0.137164
0.137164
0.137164
0.137164
0.137164
0.137164
0.137164
0.137164
0.137164
0.137164
0.137164
0.137164
0.137164
0.137164
0.137164
0.137164
0.137164
0.137164
0.137164
0.137164
0.137164
0.137164
0.137164
0.137164
0.137164
0.137164
0.137164
0.137164
0.137164
0.137164
0.137164
0.137164
0.137164
0.137164
0.137164
0.137164
0.137164
0.137164
0.137164
0.137164
0.137164
0.137164
0.137164
0.137164
0.137164
0.137162
0.137151
0.137045
0.13522
0.100941
0.0266722
0.0101876
0.00955744
0.00923815
0.0089155
0.00860708
0.00831728
0.00804363
0.0077843
0.00753796
0.00730344
0.00707973
0.00686593
0.00666125
0.006465
0.00627656
0.00609535
0.0059209
0.00575273
0.00559046
0.0054337
0.00528212
0.00513541
0.00499329
0.00485551
0.00472182
0.00459201
0.00446587
0.00434323
0.0042239
0.00410772
0.00399456
0.00388426
0.0037767
0.00367175
0.0035693
0.00346926
0.0033715
0.00327595
0.0031825
0.00309108
0.00300162
0.00291402
0.00282824
0.0027442
0.00266184
0.0025811
0.00250194
0.00242429
0.00234812
0.00227337
0.0022
0.00212795
0.00205719
0.00198767
0.00191938
0.00185227
0.00178631
0.00172145
0.00165758
0.00159461
0.00153245
0.00147117
0.00141103
0.00135252
0.00129613
0.00124196
0.00118909
0.00113504
0.00107526
0.00100291
0.000909506
0.000787503
0.000635863
0.000465862
0.000300729
0.000165553
7.44682e-05
2.56809e-05
6.16507e-06
8.95853e-07
6.51932e-08
1.88282e-09
1.70468e-11
3.14757e-13
2.78598e-13
2.78385e-13
2.78002e-13
2.76483e-13
2.72378e-13
2.64673e-13
2.53563e-13
2.40419e-13
2.26997e-13
2.14543e-13
2.0345e-13
1.93484e-13
1.8418e-13
1.75119e-13
1.66043e-13
1.56859e-13
1.47595e-13
1.38334e-13
1.29161e-13
1.20134e-13
1.11273e-13
1.02569e-13
9.39971e-14
8.55263e-14
7.71295e-14
6.87898e-14
6.05035e-14
5.2272e-14
4.4091e-14
0.137164
0.137164
0.137164
0.137164
0.137164
0.137164
0.137164
0.137164
0.137164
0.137164
0.137164
0.137164
0.137164
0.137164
0.137164
0.137164
0.137164
0.137164
0.137164
0.137164
0.137164
0.137164
0.137164
0.137164
0.137164
0.137164
0.137164
0.137164
0.137164
0.137164
0.137164
0.137164
0.137164
0.137164
0.137164
0.137164
0.137164
0.137164
0.137164
0.137164
0.137164
0.137164
0.137164
0.137164
0.137164
0.137164
0.137164
0.137162
0.137148
0.137015
0.134728
0.0950757
0.0240311
0.010097
0.00955557
0.00923576
0.00891246
0.00860438
0.0083149
0.00804149
0.00778238
0.00753624
0.0073019
0.00707835
0.0068647
0.00666015
0.00646401
0.00627567
0.00609456
0.00592018
0.00575209
0.00558988
0.00543318
0.00528166
0.005135
0.00499293
0.00485519
0.00472153
0.00459176
0.00446565
0.00434303
0.00422372
0.00410757
0.00399442
0.00388414
0.00377659
0.00367166
0.00356923
0.00346919
0.00337145
0.00327591
0.00318247
0.00309106
0.0030016
0.00291402
0.00282824
0.0027442
0.00266185
0.00258112
0.00250196
0.00242432
0.00234815
0.00227341
0.00220003
0.00212799
0.00205723
0.00198772
0.00191942
0.00185232
0.00178636
0.0017215
0.00165764
0.00159467
0.00153251
0.00147124
0.0014111
0.00135258
0.00129619
0.00124202
0.00118916
0.00113511
0.00107534
0.00100302
0.000909652
0.000787693
0.000636089
0.000466096
0.000300933
0.000165698
7.45504e-05
2.57158e-05
6.17514e-06
8.97588e-07
6.53418e-08
1.88785e-09
1.7099e-11
3.14872e-13
2.78583e-13
2.78369e-13
2.77987e-13
2.76469e-13
2.72366e-13
2.64663e-13
2.53555e-13
2.40412e-13
2.26991e-13
2.14536e-13
2.03443e-13
1.93477e-13
1.84174e-13
1.75113e-13
1.66038e-13
1.56854e-13
1.4759e-13
1.3833e-13
1.29158e-13
1.20131e-13
1.1127e-13
1.02567e-13
9.39951e-14
8.55246e-14
7.71281e-14
6.87887e-14
6.05025e-14
5.22713e-14
4.40905e-14
0.137164
0.137164
0.137164
0.137164
0.137164
0.137164
0.137164
0.137164
0.137164
0.137164
0.137164
0.137164
0.137164
0.137164
0.137164
0.137164
0.137164
0.137164
0.137164
0.137164
0.137164
0.137164
0.137164
0.137164
0.137164
0.137164
0.137164
0.137164
0.137164
0.137164
0.137164
0.137164
0.137164
0.137164
0.137164
0.137164
0.137164
0.137164
0.137164
0.137164
0.137164
0.137164
0.137164
0.137164
0.137164
0.137164
0.137164
0.137161
0.137143
0.136969
0.133938
0.0873222
0.0211285
0.010018
0.00955242
0.0092316
0.00890775
0.00860021
0.00831117
0.00803812
0.00777934
0.00753349
0.00729941
0.00707609
0.00686264
0.00665828
0.00646231
0.00627411
0.00609313
0.00591888
0.0057509
0.00558879
0.00543218
0.00528074
0.00513416
0.00499216
0.00485448
0.00472089
0.00459116
0.0044651
0.00434253
0.00422327
0.00410716
0.00399404
0.0038838
0.00377628
0.00367138
0.00356897
0.00346896
0.00337124
0.00327571
0.0031823
0.00309091
0.00300146
0.00291389
0.00282813
0.0027441
0.00266176
0.00258104
0.00250189
0.00242426
0.0023481
0.00227336
0.00219999
0.00212796
0.0020572
0.0019877
0.00191941
0.0018523
0.00178635
0.00172149
0.00165764
0.00159467
0.00153252
0.00147124
0.00141111
0.00135259
0.0012962
0.00124203
0.00118917
0.00113512
0.00107536
0.00100306
0.00090971
0.000787778
0.000636199
0.000466217
0.000301044
0.000165781
7.45992e-05
2.57372e-05
6.18161e-06
8.98748e-07
6.54448e-08
1.89143e-09
1.71371e-11
3.14958e-13
2.78573e-13
2.78359e-13
2.77977e-13
2.76459e-13
2.72357e-13
2.64655e-13
2.53548e-13
2.40406e-13
2.26985e-13
2.14531e-13
2.03438e-13
1.93473e-13
1.84169e-13
1.7511e-13
1.66034e-13
1.56851e-13
1.47588e-13
1.38328e-13
1.29156e-13
1.2013e-13
1.11269e-13
1.02566e-13
9.39942e-14
8.55239e-14
7.71275e-14
6.87882e-14
6.05023e-14
5.22711e-14
4.40904e-14
0.137164
0.137164
0.137164
0.137164
0.137164
0.137164
0.137164
0.137164
0.137164
0.137164
0.137164
0.137164
0.137164
0.137164
0.137164
0.137164
0.137164
0.137164
0.137164
0.137164
0.137164
0.137164
0.137164
0.137164
0.137164
0.137164
0.137164
0.137164
0.137164
0.137164
0.137164
0.137164
0.137164
0.137164
0.137164
0.137164
0.137164
0.137164
0.137164
0.137164
0.137164
0.137164
0.137164
0.137164
0.137164
0.137164
0.137163
0.137159
0.137135
0.136894
0.132683
0.0777572
0.018193
0.00995704
0.00954784
0.00922537
0.00890121
0.00859438
0.00830592
0.00803336
0.007775
0.00752953
0.00729578
0.00707277
0.00685959
0.00665547
0.00645972
0.00627172
0.00609093
0.00591684
0.00574901
0.00558704
0.00543056
0.00527923
0.00513276
0.00499086
0.00485327
0.00471976
0.00459012
0.00446413
0.00434163
0.00422243
0.00410637
0.00399332
0.00388312
0.00377565
0.00367079
0.00356843
0.00346845
0.00337077
0.00327528
0.00318189
0.00309053
0.00300112
0.00291357
0.00282783
0.00274383
0.00266151
0.00258081
0.00250167
0.00242406
0.00234792
0.00227319
0.00219984
0.00212782
0.00205708
0.00198758
0.0019193
0.00185221
0.00178627
0.00172142
0.00165757
0.0015946
0.00153246
0.00147119
0.00141106
0.00135255
0.00129617
0.001242
0.00118914
0.0011351
0.00107534
0.00100305
0.000909709
0.000787789
0.000636222
0.000466248
0.000301077
0.000165808
7.46169e-05
2.57456e-05
6.18431e-06
8.99268e-07
6.54942e-08
1.89327e-09
1.71577e-11
3.15007e-13
2.78568e-13
2.78354e-13
2.77972e-13
2.76455e-13
2.72352e-13
2.64651e-13
2.53544e-13
2.40403e-13
2.26983e-13
2.14529e-13
2.03436e-13
1.93471e-13
1.84168e-13
1.75108e-13
1.66033e-13
1.5685e-13
1.47587e-13
1.38327e-13
1.29155e-13
1.20129e-13
1.11269e-13
1.02565e-13
9.3994e-14
8.55237e-14
7.71274e-14
6.87882e-14
6.05022e-14
5.22711e-14
4.40904e-14
0.137164
0.137164
0.137164
0.137164
0.137164
0.137164
0.137164
0.137164
0.137164
0.137164
0.137164
0.137164
0.137164
0.137164
0.137164
0.137164
0.137164
0.137164
0.137164
0.137164
0.137164
0.137164
0.137164
0.137164
0.137164
0.137164
0.137164
0.137164
0.137164
0.137164
0.137164
0.137164
0.137164
0.137164
0.137164
0.137164
0.137164
0.137164
0.137164
0.137164
0.137164
0.137164
0.137164
0.137164
0.137164
0.137164
0.137163
0.137157
0.137123
0.136775
0.130611
0.0670906
0.0155708
0.00991302
0.0095416
0.0092168
0.00889263
0.0085867
0.00829896
0.00802699
0.00776916
0.00752416
0.00729084
0.00706821
0.00685537
0.00665156
0.0064561
0.00626835
0.00608779
0.00591392
0.00574629
0.0055845
0.00542819
0.00527702
0.00513068
0.00498891
0.00485145
0.00471805
0.00458851
0.00446263
0.00434022
0.0042211
0.00410513
0.00399215
0.00388202
0.00377462
0.00366982
0.00356752
0.0034676
0.00336996
0.00327452
0.00318118
0.00308986
0.00300049
0.00291298
0.00282728
0.00274331
0.00266102
0.00258035
0.00250125
0.00242366
0.00234754
0.00227284
0.00219951
0.00212751
0.00205679
0.00198731
0.00191905
0.00185197
0.00178605
0.00172121
0.00165737
0.00159443
0.0015323
0.00147104
0.00141092
0.00135242
0.00129605
0.00124189
0.00118904
0.00113501
0.00107527
0.00100299
0.000909657
0.000787747
0.000636192
0.000466231
0.00030107
0.000165808
7.46188e-05
2.57472e-05
6.18498e-06
8.99428e-07
6.55116e-08
1.89397e-09
1.7166e-11
3.15029e-13
2.78567e-13
2.78353e-13
2.77971e-13
2.76454e-13
2.72351e-13
2.6465e-13
2.53544e-13
2.40403e-13
2.26982e-13
2.14528e-13
2.03436e-13
1.93471e-13
1.84168e-13
1.75108e-13
1.66033e-13
1.5685e-13
1.47587e-13
1.38327e-13
1.29155e-13
1.20129e-13
1.11269e-13
1.02565e-13
9.3994e-14
8.55238e-14
7.71274e-14
6.87882e-14
6.05023e-14
5.22712e-14
4.40905e-14
0.137164
0.137164
0.137164
0.137164
0.137164
0.137164
0.137164
0.137164
0.137164
0.137164
0.137164
0.137164
0.137164
0.137164
0.137164
0.137164
0.137164
0.137164
0.137164
0.137164
0.137164
0.137164
0.137164
0.137164
0.137164
0.137164
0.137164
0.137164
0.137164
0.137164
0.137164
0.137164
0.137164
0.137164
0.137164
0.137164
0.137164
0.137164
0.137164
0.137164
0.137164
0.137164
0.137164
0.137164
0.137164
0.137164
0.137162
0.137154
0.137104
0.136574
0.12719
0.0559351
0.013463
0.00988362
0.00953336
0.00920571
0.00888187
0.00857701
0.00829012
0.00801887
0.00776168
0.00751725
0.00728445
0.00706228
0.00684986
0.00664643
0.00645131
0.00626389
0.00608362
0.00591001
0.00574262
0.00558106
0.00542495
0.00527398
0.00512782
0.00498622
0.00484891
0.00471566
0.00458626
0.0044605
0.0043382
0.0042192
0.00410333
0.00399045
0.00388041
0.00377309
0.00366838
0.00356615
0.0034663
0.00336874
0.00327336
0.00318008
0.00308882
0.0029995
0.00291205
0.00282639
0.00274247
0.00266022
0.0025796
0.00250053
0.00242299
0.0023469
0.00227224
0.00219894
0.00212697
0.00205628
0.00198683
0.00191859
0.00185154
0.00178564
0.00172083
0.00165701
0.00159409
0.00153198
0.00147074
0.00141064
0.00135216
0.00129581
0.00124167
0.00118884
0.00113483
0.0010751
0.00100283
0.000909521
0.00078763
0.000636098
0.000466164
0.000301029
0.000165788
7.46114e-05
2.57456e-05
6.18489e-06
8.99458e-07
6.5517e-08
1.89421e-09
1.7169e-11
3.15038e-13
2.78567e-13
2.78353e-13
2.77971e-13
2.76454e-13
2.72351e-13
2.6465e-13
2.53544e-13
2.40403e-13
2.26982e-13
2.14528e-13
2.03436e-13
1.93471e-13
1.84168e-13
1.75108e-13
1.66033e-13
1.5685e-13
1.47587e-13
1.38327e-13
1.29155e-13
1.20129e-13
1.11269e-13
1.02565e-13
9.39941e-14
8.55238e-14
7.71275e-14
6.87883e-14
6.05024e-14
5.22713e-14
4.40905e-14
0.137164
0.137164
0.137164
0.137164
0.137164
0.137164
0.137164
0.137164
0.137164
0.137164
0.137164
0.137164
0.137164
0.137164
0.137164
0.137164
0.137164
0.137164
0.137164
0.137164
0.137164
0.137164
0.137164
0.137164
0.137164
0.137164
0.137164
0.137164
0.137164
0.137164
0.137164
0.137164
0.137164
0.137164
0.137164
0.137164
0.137164
0.137164
0.137164
0.137164
0.137164
0.137164
0.137164
0.137164
0.137164
0.137163
0.137161
0.137149
0.137072
0.136232
0.121525
0.0450366
0.0119004
0.00986203
0.00952272
0.00919195
0.00886884
0.00856523
0.00827932
0.00800891
0.00775247
0.00750871
0.00727651
0.00705488
0.00684296
0.00663999
0.00644528
0.00625823
0.00607831
0.00590502
0.00573792
0.00557663
0.00542078
0.00527003
0.0051241
0.00498269
0.00484557
0.0047125
0.00458326
0.00445765
0.0043355
0.00421664
0.00410089
0.00398813
0.00387821
0.003771
0.00366639
0.00356426
0.0034645
0.00336702
0.00327173
0.00317853
0.00308734
0.00299809
0.0029107
0.00282511
0.00274125
0.00265906
0.00257848
0.00249947
0.00242197
0.00234594
0.00227132
0.00219806
0.00212613
0.00205548
0.00198607
0.00191787
0.00185085
0.00178498
0.0017202
0.00165642
0.00159353
0.00153145
0.00147024
0.00141017
0.00135172
0.00129539
0.00124128
0.00118848
0.0011345
0.0010748
0.00100255
0.000909264
0.000787401
0.000635903
0.000466014
0.000300929
0.000165733
7.45892e-05
2.57397e-05
6.18404e-06
8.99416e-07
6.55186e-08
1.89436e-09
1.71707e-11
3.15042e-13
2.78567e-13
2.78353e-13
2.77971e-13
2.76454e-13
2.72352e-13
2.64651e-13
2.53544e-13
2.40403e-13
2.26982e-13
2.14529e-13
2.03436e-13
1.93471e-13
1.84168e-13
1.75108e-13
1.66033e-13
1.5685e-13
1.47587e-13
1.38327e-13
1.29156e-13
1.20129e-13
1.11269e-13
1.02566e-13
9.39942e-14
8.5524e-14
7.71276e-14
6.87884e-14
6.05024e-14
5.22714e-14
4.40906e-14
0.137164
0.137164
0.137164
0.137164
0.137164
0.137164
0.137164
0.137164
0.137164
0.137164
0.137164
0.137164
0.137164
0.137164
0.137164
0.137164
0.137164
0.137164
0.137164
0.137164
0.137164
0.137164
0.137164
0.137164
0.137164
0.137164
0.137164
0.137164
0.137164
0.137164
0.137164
0.137164
0.137164
0.137164
0.137164
0.137164
0.137164
0.137164
0.137164
0.137164
0.137164
0.137164
0.137164
0.137164
0.137164
0.137163
0.137159
0.137141
0.137019
0.135611
0.112265
0.0349639
0.0109523
0.00984327
0.00950915
0.00917548
0.00885352
0.00855131
0.00826651
0.00799706
0.00774147
0.00749848
0.00726697
0.00704597
0.00683462
0.00663217
0.00643793
0.00625132
0.0060718
0.00589888
0.00573212
0.00557115
0.00541558
0.00526511
0.00511943
0.00497827
0.00484136
0.0047085
0.00457945
0.00445403
0.00433205
0.00421335
0.00409776
0.00398514
0.00387535
0.00376828
0.00366378
0.00356177
0.00346212
0.00336475
0.00326955
0.00317644
0.00308535
0.00299618
0.00290887
0.00282336
0.00273957
0.00265745
0.00257695
0.002498
0.00242056
0.00234459
0.00227002
0.00219682
0.00212494
0.00205434
0.00198498
0.00191682
0.00184985
0.00178403
0.00171929
0.00165555
0.00159269
0.00153065
0.00146948
0.00140945
0.00135104
0.00129476
0.00124068
0.00118792
0.00113398
0.00107431
0.0010021
0.000908842
0.000787015
0.000635567
0.000465746
0.000300744
0.000165628
7.45427e-05
2.57255e-05
6.18152e-06
8.99215e-07
6.55156e-08
1.89452e-09
1.71734e-11
3.15049e-13
2.78568e-13
2.78354e-13
2.77972e-13
2.76455e-13
2.72352e-13
2.64651e-13
2.53545e-13
2.40404e-13
2.26983e-13
2.14529e-13
2.03437e-13
1.93471e-13
1.84168e-13
1.75108e-13
1.66033e-13
1.5685e-13
1.47587e-13
1.38327e-13
1.29156e-13
1.20129e-13
1.11269e-13
1.02566e-13
9.39944e-14
8.55241e-14
7.71277e-14
6.87885e-14
6.05025e-14
5.22714e-14
4.40907e-14
0.137164
0.137164
0.137164
0.137164
0.137164
0.137164
0.137164
0.137164
0.137164
0.137164
0.137164
0.137164
0.137164
0.137164
0.137164
0.137164
0.137164
0.137164
0.137164
0.137164
0.137164
0.137164
0.137164
0.137164
0.137164
0.137164
0.137164
0.137164
0.137164
0.137164
0.137164
0.137164
0.137164
0.137164
0.137164
0.137164
0.137164
0.137164
0.137164
0.137164
0.137164
0.137164
0.137164
0.137164
0.137163
0.137162
0.137155
0.137127
0.136926
0.134447
0.0981388
0.0261394
0.0104661
0.00982479
0.00949204
0.00915631
0.00883592
0.00853524
0.00825168
0.00798331
0.00772869
0.00748656
0.00725582
0.00703553
0.00682482
0.00662294
0.00642925
0.00624313
0.00606406
0.00589156
0.00572519
0.00556457
0.00540934
0.00525918
0.00511379
0.0049729
0.00483625
0.00470362
0.0045748
0.00444959
0.00432781
0.00420929
0.00409388
0.00398142
0.0038718
0.00376487
0.00366052
0.00355863
0.00345912
0.00336186
0.00326678
0.00317379
0.0030828
0.00299373
0.00290652
0.00282109
0.00273739
0.00265536
0.00257493
0.00249606
0.0024187
0.00234279
0.0022683
0.00219516
0.00212335
0.00205281
0.0019835
0.0019154
0.00184849
0.00178272
0.00171803
0.00165434
0.00159154
0.00152955
0.00146843
0.00140845
0.00135009
0.00129386
0.00123984
0.00118713
0.00113323
0.0010736
0.00100143
0.000908208
0.000786426
0.000635045
0.000465323
0.000300444
0.00016545
7.44604e-05
2.56985e-05
6.17606e-06
8.98671e-07
6.54981e-08
1.89459e-09
1.71778e-11
3.15062e-13
2.78569e-13
2.78355e-13
2.77973e-13
2.76456e-13
2.72353e-13
2.64652e-13
2.53546e-13
2.40404e-13
2.26984e-13
2.1453e-13
2.03437e-13
1.93472e-13
1.84169e-13
1.75109e-13
1.66034e-13
1.56851e-13
1.47588e-13
1.38328e-13
1.29156e-13
1.2013e-13
1.11269e-13
1.02566e-13
9.39945e-14
8.55242e-14
7.71278e-14
6.87886e-14
6.05026e-14
5.22715e-14
4.40907e-14
0.137164
0.137164
0.137164
0.137164
0.137164
0.137164
0.137164
0.137164
0.137164
0.137164
0.137164
0.137164
0.137164
0.137164
0.137164
0.137164
0.137164
0.137164
0.137164
0.137164
0.137164
0.137164
0.137164
0.137164
0.137164
0.137164
0.137164
0.137164
0.137164
0.137164
0.137164
0.137164
0.137164
0.137164
0.137164
0.137164
0.137164
0.137164
0.137164
0.137164
0.137164
0.137164
0.137164
0.137164
0.137163
0.13716
0.13715
0.137104
0.13676
0.13223
0.0798393
0.0192567
0.01025
0.00980549
0.00947097
0.00913456
0.0088161
0.00851707
0.00823486
0.00796769
0.00771413
0.00747295
0.00724308
0.00702355
0.00681355
0.00661232
0.00641922
0.00623365
0.00605508
0.00588304
0.00571711
0.00555689
0.00540204
0.00525222
0.00510716
0.00496656
0.0048302
0.00469784
0.00456927
0.0044443
0.00432274
0.00420443
0.00408922
0.00397696
0.00386751
0.00376075
0.00365656
0.00355483
0.00345546
0.00335834
0.00326339
0.00317052
0.00307965
0.0029907
0.0029036
0.00281828
0.00273468
0.00265274
0.00257241
0.00249363
0.00241635
0.00234053
0.00226611
0.00219305
0.00212131
0.00205084
0.0019816
0.00191358
0.00184673
0.00178102
0.0017164
0.00165277
0.00159003
0.0015281
0.00146704
0.00140713
0.00134883
0.00129266
0.0012387
0.00118606
0.00113221
0.00107263
0.0010005
0.000907319
0.000785589
0.000634292
0.000464703
0.000299997
0.000165179
7.43296e-05
2.5653e-05
6.16609e-06
8.97534e-07
6.54486e-08
1.89423e-09
1.71836e-11
3.15087e-13
2.7857e-13
2.78356e-13
2.77974e-13
2.76457e-13
2.72354e-13
2.64653e-13
2.53547e-13
2.40405e-13
2.26984e-13
2.14531e-13
2.03438e-13
1.93472e-13
1.84169e-13
1.75109e-13
1.66034e-13
1.56851e-13
1.47588e-13
1.38328e-13
1.29156e-13
1.2013e-13
1.11269e-13
1.02566e-13
9.39946e-14
8.55243e-14
7.71279e-14
6.87887e-14
6.05027e-14
5.22716e-14
4.40908e-14
0.137164
0.137164
0.137164
0.137164
0.137164
0.137164
0.137164
0.137164
0.137164
0.137164
0.137164
0.137164
0.137164
0.137164
0.137164
0.137164
0.137164
0.137164
0.137164
0.137164
0.137164
0.137164
0.137164
0.137164
0.137164
0.137164
0.137164
0.137164
0.137164
0.137164
0.137164
0.137164
0.137164
0.137164
0.137164
0.137164
0.137164
0.137164
0.137164
0.137164
0.137164
0.137164
0.137164
0.137163
0.137162
0.137158
0.137142
0.137064
0.136447
0.127813
0.0606504
0.0146264
0.0101579
0.00978454
0.00944619
0.00911037
0.00879412
0.00849686
0.00821613
0.00795026
0.00769785
0.00745771
0.00722877
0.00701009
0.00680086
0.00660033
0.00640788
0.0062229
0.00604488
0.00587336
0.0057079
0.00554812
0.00539367
0.00524424
0.00509953
0.00495927
0.00482322
0.00469116
0.00456287
0.00443815
0.00431684
0.00419877
0.00408378
0.00397172
0.00386247
0.0037559
0.00365189
0.00355033
0.00345112
0.00335416
0.00325936
0.00316663
0.0030759
0.00298708
0.0029001
0.0028149
0.00273141
0.00264958
0.00256935
0.00249067
0.00241349
0.00233776
0.00226343
0.00219046
0.0021188
0.00204841
0.00197926
0.00191131
0.00184454
0.0017789
0.00171436
0.0016508
0.00158813
0.00152628
0.00146529
0.00140545
0.00134723
0.00129113
0.00123725
0.00118468
0.0011309
0.00107137
0.000999273
0.000906134
0.000784459
0.000633262
0.000463844
0.000299367
0.000164789
7.41366e-05
2.55831e-05
6.1498e-06
8.9549e-07
6.5343e-08
1.8928e-09
1.71866e-11
3.1512e-13
2.7857e-13
2.78357e-13
2.77975e-13
2.76458e-13
2.72355e-13
2.64654e-13
2.53547e-13
2.40406e-13
2.26985e-13
2.14531e-13
2.03438e-13
1.93473e-13
1.84169e-13
1.7511e-13
1.66034e-13
1.56851e-13
1.47588e-13
1.38328e-13
1.29156e-13
1.2013e-13
1.1127e-13
1.02566e-13
9.39948e-14
8.55245e-14
7.71281e-14
6.87888e-14
6.05028e-14
5.22717e-14
4.40909e-14
0.137164
0.137164
0.137164
0.137164
0.137164
0.137164
0.137164
0.137164
0.137164
0.137164
0.137164
0.137164
0.137164
0.137164
0.137164
0.137164
0.137164
0.137164
0.137164
0.137164
0.137164
0.137164
0.137164
0.137164
0.137164
0.137164
0.137164
0.137164
0.137164
0.137164
0.137164
0.137164
0.137164
0.137164
0.137164
0.137164
0.137164
0.137164
0.137164
0.137164
0.137164
0.137164
0.137163
0.137163
0.13716
0.137154
0.137128
0.136992
0.135819
0.119087
0.0434495
0.0120293
0.0101117
0.00976094
0.00941813
0.0090839
0.00877006
0.00847469
0.00819556
0.00793109
0.00767993
0.0074409
0.00721296
0.00699519
0.00678678
0.00658702
0.00639526
0.00621092
0.0060335
0.00586252
0.00569757
0.00553827
0.00538427
0.00523525
0.00509093
0.00495103
0.00481533
0.00468358
0.00455559
0.00443117
0.00431012
0.00419231
0.00407755
0.00396573
0.0038567
0.00375033
0.00364652
0.00354515
0.00344611
0.00334932
0.00325469
0.00316211
0.00307152
0.00298284
0.002896
0.00281093
0.00272757
0.00264586
0.00256575
0.00248718
0.00241011
0.00233448
0.00226025
0.00218738
0.00211581
0.00204552
0.00197645
0.00190859
0.0018419
0.00177636
0.00171189
0.00164842
0.00158583
0.00152406
0.00146316
0.0014034
0.00134526
0.00128925
0.00123546
0.00118296
0.00112926
0.00106978
0.000997723
0.000904617
0.000782995
0.000631914
0.000462705
0.000298521
0.000164257
7.38676e-05
2.54824e-05
6.12519e-06
8.9217e-07
6.51494e-08
1.88931e-09
1.71797e-11
3.15145e-13
2.78566e-13
2.78355e-13
2.77976e-13
2.76459e-13
2.72356e-13
2.64655e-13
2.53548e-13
2.40407e-13
2.26986e-13
2.14532e-13
2.03439e-13
1.93473e-13
1.8417e-13
1.7511e-13
1.66035e-13
1.56852e-13
1.47588e-13
1.38328e-13
1.29157e-13
1.2013e-13
1.1127e-13
1.02566e-13
9.3995e-14
8.55246e-14
7.71282e-14
6.87889e-14
6.05029e-14
5.22718e-14
4.4091e-14
0.137164
0.137164
0.137164
0.137164
0.137164
0.137164
0.137164
0.137164
0.137164
0.137164
0.137164
0.137164
0.137164
0.137164
0.137164
0.137164
0.137164
0.137164
0.137164
0.137164
0.137164
0.137164
0.137164
0.137164
0.137164
0.137164
0.137164
0.137164
0.137164
0.137164
0.137164
0.137164
0.137164
0.137164
0.137164
0.137164
0.137164
0.137164
0.137164
0.137164
0.137164
0.137164
0.137163
0.137162
0.137158
0.137147
0.137104
0.136858
0.134477
0.103209
0.0295215
0.0108902
0.0100775
0.00973333
0.00938709
0.0090553
0.008744
0.00845065
0.00817324
0.00791026
0.00766043
0.00742258
0.00719571
0.00697891
0.00677139
0.00657244
0.00638141
0.00619776
0.00602097
0.00585058
0.00568618
0.00552739
0.00537386
0.00522529
0.00508138
0.00494188
0.00480654
0.00467514
0.00454747
0.00442335
0.0043026
0.00418506
0.00407057
0.00395899
0.00385019
0.00374405
0.00364045
0.00353928
0.00344044
0.00334383
0.00324937
0.00315696
0.00306654
0.00297801
0.00289132
0.00280639
0.00272316
0.00264159
0.0025616
0.00248315
0.0024062
0.00233068
0.00225656
0.0021838
0.00211234
0.00204214
0.00197318
0.00190541
0.00183882
0.00177337
0.001709
0.00164561
0.00158312
0.00152144
0.00146062
0.00140096
0.00134292
0.001287
0.0012333
0.0011809
0.00112727
0.00106784
0.000995821
0.000902738
0.000781163
0.000630207
0.00046125
0.000297428
0.00016356
7.3509e-05
2.53446e-05
6.09022e-06
8.87175e-07
6.48303e-08
1.88249e-09
1.71506e-11
3.15136e-13
2.78552e-13
2.78349e-13
2.77974e-13
2.76461e-13
2.72358e-13
2.64656e-13
2.53549e-13
2.40407e-13
2.26986e-13
2.14532e-13
2.03439e-13
1.93474e-13
1.8417e-13
1.7511e-13
1.66035e-13
1.56852e-13
1.47589e-13
1.38329e-13
1.29157e-13
1.2013e-13
1.1127e-13
1.02567e-13
9.39951e-14
8.55248e-14
7.71283e-14
6.8789e-14
6.0503e-14
5.22719e-14
4.40911e-14
0.137164
0.137164
0.137164
0.137164
0.137164
0.137164
0.137164
0.137164
0.137164
0.137164
0.137164
0.137164
0.137164
0.137164
0.137164
0.137164
0.137164
0.137164
0.137164
0.137164
0.137164
0.137164
0.137164
0.137164
0.137164
0.137164
0.137164
0.137164
0.137164
0.137164
0.137164
0.137164
0.137164
0.137164
0.137164
0.137164
0.137164
0.137164
0.137164
0.137164
0.137164
0.137163
0.137162
0.13716
0.137154
0.137136
0.137061
0.136593
0.131513
0.0795857
0.0195625
0.0105075
0.0100456
0.00970047
0.00935336
0.00902467
0.00871603
0.00842483
0.00814925
0.00788788
0.00763946
0.00740286
0.00717712
0.00696134
0.00675475
0.00655665
0.00636641
0.00618348
0.00600736
0.0058376
0.00567377
0.00551552
0.00536249
0.00521439
0.00507092
0.00493184
0.00479689
0.00466585
0.00453854
0.00441474
0.0042943
0.00417705
0.00406284
0.00395152
0.00384297
0.00373707
0.0036337
0.00353274
0.00343411
0.0033377
0.00324343
0.0031512
0.00306095
0.00297259
0.00288605
0.00280128
0.0027182
0.00263676
0.00255691
0.00247859
0.00240177
0.00232637
0.00225238
0.00217973
0.00210838
0.00203829
0.00196943
0.00190177
0.00183528
0.00176993
0.00170566
0.00164238
0.00157998
0.0015184
0.00145769
0.00139812
0.00134018
0.00128437
0.00123078
0.00117847
0.00112492
0.00106555
0.000993545
0.00090047
0.00077893
0.000628109
0.000459443
0.000296059
0.000162678
7.30485e-05
2.5164e-05
6.04293e-06
8.80105e-07
6.43453e-08
1.87085e-09
1.70814e-11
3.15042e-13
2.78521e-13
2.78332e-13
2.77968e-13
2.76461e-13
2.7236e-13
2.64658e-13
2.5355e-13
2.40408e-13
2.26987e-13
2.14533e-13
2.0344e-13
1.93474e-13
1.84171e-13
1.75111e-13
1.66035e-13
1.56852e-13
1.47589e-13
1.38329e-13
1.29157e-13
1.20131e-13
1.1127e-13
1.02567e-13
9.39953e-14
8.55249e-14
7.71285e-14
6.87892e-14
6.05031e-14
5.2272e-14
4.40912e-14
0.137164
0.137164
0.137164
0.137164
0.137164
0.137164
0.137164
0.137164
0.137164
0.137164
0.137164
0.137164
0.137164
0.137164
0.137164
0.137164
0.137164
0.137164
0.137164
0.137164
0.137164
0.137164
0.137164
0.137164
0.137164
0.137164
0.137164
0.137164
0.137164
0.137164
0.137164
0.137164
0.137164
0.137164
0.137164
0.137164
0.137164
0.137164
0.137164
0.137164
0.137163
0.137162
0.137161
0.137157
0.137148
0.137117
0.136982
0.136028
0.124712
0.0549532
0.0139115
0.0103871
0.0100127
0.00966282
0.00931728
0.00899209
0.00868622
0.00839731
0.0081237
0.00786403
0.0076171
0.00738182
0.00715726
0.00694255
0.00673694
0.00653973
0.00635032
0.00616815
0.00599273
0.00582361
0.0056604
0.00550271
0.00535021
0.00520261
0.00505961
0.00492096
0.00478642
0.00465577
0.00452882
0.00440537
0.00428526
0.00416832
0.0040544
0.00394336
0.00383508
0.00372943
0.00362629
0.00352557
0.00342716
0.00333096
0.00323688
0.00314485
0.00305478
0.00296659
0.00288023
0.00279561
0.00271269
0.0026314
0.0025517
0.00247352
0.00239683
0.00232157
0.0022477
0.00217517
0.00210394
0.00203397
0.00196523
0.00189768
0.0018313
0.00176606
0.0017019
0.00163872
0.00157643
0.00151495
0.00145434
0.00139488
0.00133706
0.00128136
0.00122788
0.00117567
0.0011222
0.00106287
0.000990879
0.000897792
0.000776273
0.00062559
0.000457258
0.00029439
0.000161594
7.24755e-05
2.49354e-05