/*--------------------------------*- C++ -*----------------------------------*\
  =========                 |
  \\      /  F ield         | OpenFOAM: The Open Source CFD Toolbox
   \\    /   O peration     | Website:  https://openfoam.org
    \\  /    A nd           | Version:  13
     \\/     M anipulation  |
\*---------------------------------------------------------------------------*/
FoamFile
{
    format      ascii;
    class       volScalarField;
    location    "0.0015";
    object      H2O;
}
// * * * * * * * * * * * * * * * * * * * * * * * * * * * * * * * * * * * * * //

dimensions      [];

internalField   nonuniform List<scalar> 
33334
(
0.112295
0.112295
0.112295
0.112295
0.112295
0.112295
0.112295
0.112295
0.112295
0.112295
0.112295
0.112295
0.112295
0.112295
0.112295
0.112295
0.112295
0.112295
0.112295
0.112295
0.112295
0.112295
0.112295
0.112295
0.112295
0.112295
0.112295
0.112295
0.112295
0.112295
0.112295
0.112295
0.112295
0.112295
0.112295
0.112295
0.112295
0.112295
0.112295
0.112295
0.112295
0.112295
0.112295
0.112295
0.112295
0.112295
0.112295
0.112294
0.112287
0.112215
0.111007
0.0872119
0.024314
0.00844643
0.00782559
0.00756435
0.0073009
0.0070481
0.00681057
0.00658632
0.00637384
0.00617203
0.00597993
0.00579669
0.00562158
0.00545394
0.00529322
0.00513888
0.00499048
0.00484762
0.0047099
0.00457702
0.00444865
0.00432453
0.00420439
0.00408802
0.0039752
0.00386573
0.00375944
0.00365616
0.00355573
0.00345803
0.0033629
0.00327024
0.00317993
0.00309186
0.00300594
0.00292206
0.00284014
0.00276011
0.00268187
0.00260536
0.00253052
0.00245727
0.00238555
0.00231532
0.00224651
0.00217908
0.00211298
0.00204817
0.0019846
0.00192224
0.00186104
0.00180097
0.00174198
0.00168405
0.00162714
0.00157122
0.00151628
0.00146228
0.00140918
0.00135689
0.00130534
0.00125445
0.00120428
0.00115505
0.00110715
0.00106099
0.00101664
0.00097336
0.000929097
0.000880129
0.00082086
0.000744325
0.000644376
0.000520187
0.00038102
0.000245897
0.000135333
6.08592e-05
2.09822e-05
5.03552e-06
7.31429e-07
5.31995e-08
1.53537e-09
1.38904e-11
2.57535e-13
2.28102e-13
2.27927e-13
2.27613e-13
2.26368e-13
2.23004e-13
2.16692e-13
2.07593e-13
1.96831e-13
1.85843e-13
1.75647e-13
1.66566e-13
1.58407e-13
1.5079e-13
1.43372e-13
1.35941e-13
1.28422e-13
1.20837e-13
1.13255e-13
1.05746e-13
9.83553e-14
9.11006e-14
8.39746e-14
7.69567e-14
7.00215e-14
6.31469e-14
5.63191e-14
4.95349e-14
4.27957e-14
3.60978e-14
0.112295
0.112295
0.112295
0.112295
0.112295
0.112295
0.112295
0.112295
0.112295
0.112295
0.112295
0.112295
0.112295
0.112295
0.112295
0.112295
0.112295
0.112295
0.112295
0.112295
0.112295
0.112295
0.112295
0.112295
0.112295
0.112295
0.112295
0.112295
0.112295
0.112295
0.112295
0.112295
0.112295
0.112295
0.112295
0.112295
0.112295
0.112295
0.112295
0.112295
0.112295
0.112295
0.112295
0.112295
0.112295
0.112295
0.112295
0.112294
0.112286
0.112212
0.11093
0.0857997
0.0234938
0.0084084
0.00782529
0.00756406
0.00730037
0.00704769
0.00681026
0.00658611
0.0063737
0.00617193
0.00597986
0.00579663
0.00562154
0.00545391
0.0052932
0.00513887
0.00499048
0.00484762
0.00470992
0.00457703
0.00444867
0.00432455
0.00420442
0.00408805
0.00397523
0.00386577
0.00375948
0.0036562
0.00355578
0.00345808
0.00336296
0.0032703
0.00317999
0.00309192
0.003006
0.00292212
0.00284021
0.00276017
0.00268194
0.00260543
0.00253059
0.00245734
0.00238562
0.00231539
0.00224658
0.00217915
0.00211305
0.00204824
0.00198467
0.00192231
0.00186111
0.00180104
0.00174205
0.00168412
0.00162721
0.00157129
0.00151635
0.00146235
0.00140925
0.00135696
0.0013054
0.00125452
0.00120435
0.00115511
0.00110721
0.00106105
0.0010167
0.00097342
0.000929161
0.000880202
0.000820951
0.000744441
0.000644517
0.000520342
0.000381166
0.000246012
0.000135406
6.08961e-05
2.09963e-05
5.03934e-06
7.32082e-07
5.32582e-08
1.53751e-09
1.39143e-11
2.57593e-13
2.28097e-13
2.27922e-13
2.27609e-13
2.26364e-13
2.23001e-13
2.16691e-13
2.07594e-13
1.96832e-13
1.85843e-13
1.75647e-13
1.66566e-13
1.58407e-13
1.5079e-13
1.43372e-13
1.35941e-13
1.28422e-13
1.20837e-13
1.13255e-13
1.05745e-13
9.83548e-14
9.11001e-14
8.39742e-14
7.69562e-14
7.00211e-14
6.31465e-14
5.63187e-14
4.95346e-14
4.27954e-14
3.60975e-14
0.112295
0.112295
0.112295
0.112295
0.112295
0.112295
0.112295
0.112295
0.112295
0.112295
0.112295
0.112295
0.112295
0.112295
0.112295
0.112295
0.112295
0.112295
0.112295
0.112295
0.112295
0.112295
0.112295
0.112295
0.112295
0.112295
0.112295
0.112295
0.112295
0.112295
0.112295
0.112295
0.112295
0.112295
0.112295
0.112295
0.112295
0.112295
0.112295
0.112295
0.112295
0.112295
0.112295
0.112295
0.112295
0.112295
0.112295
0.112293
0.112285
0.112198
0.110703
0.0826394
0.0218363
0.00834048
0.00782459
0.00756319
0.00729904
0.00704654
0.00680929
0.00658525
0.00637294
0.00617126
0.00597926
0.00579611
0.00562108
0.00545351
0.00529284
0.00513856
0.00499021
0.00484739
0.00470971
0.00457686
0.00444852
0.00432442
0.00420431
0.00408796
0.00397516
0.00386571
0.00375944
0.00365617
0.00355576
0.00345807
0.00336296
0.00327031
0.00318001
0.00309195
0.00300603
0.00292216
0.00284025
0.00276022
0.00268199
0.00260549
0.00253064
0.0024574
0.00238569
0.00231545
0.00224665
0.00217922
0.00211312
0.00204831
0.00198475
0.00192239
0.00186119
0.00180112
0.00174213
0.0016842
0.00162729
0.00157138
0.00151643
0.00146244
0.00140933
0.00135705
0.00130549
0.00125461
0.00120444
0.0011552
0.0011073
0.00106113
0.00101678
0.000973501
0.000929247
0.000880303
0.000821077
0.000744605
0.000644722
0.000520576
0.000381397
0.000246204
0.000135537
6.09665e-05
2.10247e-05
5.04729e-06
7.33427e-07
5.33731e-08
1.54145e-09
1.39561e-11
2.57689e-13
2.28086e-13
2.27911e-13
2.27598e-13
2.26355e-13
2.22993e-13
2.16686e-13
2.0759e-13
1.96829e-13
1.85841e-13
1.75644e-13
1.66563e-13
1.58403e-13
1.50786e-13
1.43368e-13
1.35938e-13
1.28419e-13
1.20834e-13
1.13252e-13
1.05743e-13
9.83527e-14
9.10982e-14
8.39724e-14
7.69546e-14
7.00197e-14
6.31452e-14
5.63176e-14
4.95337e-14
4.27947e-14
3.60969e-14
0.112295
0.112295
0.112295
0.112295
0.112295
0.112295
0.112295
0.112295
0.112295
0.112295
0.112295
0.112295
0.112295
0.112295
0.112295
0.112295
0.112295
0.112295
0.112295
0.112295
0.112295
0.112295
0.112295
0.112295
0.112295
0.112295
0.112295
0.112295
0.112295
0.112295
0.112295
0.112295
0.112295
0.112295
0.112295
0.112295
0.112295
0.112295
0.112295
0.112295
0.112295
0.112295
0.112295
0.112295
0.112295
0.112295
0.112295
0.112293
0.112282
0.112173
0.110301
0.0778376
0.0196741
0.00826632
0.00782306
0.00756124
0.00729655
0.00704433
0.00680733
0.0065835
0.00637137
0.00616985
0.005978
0.00579498
0.00562007
0.0054526
0.00529203
0.00513783
0.00498956
0.0048468
0.00470919
0.00457639
0.0044481
0.00432405
0.00420398
0.00408767
0.0039749
0.00386548
0.00375923
0.00365599
0.0035556
0.00345793
0.00336283
0.0032702
0.00317991
0.00309186
0.00300596
0.0029221
0.0028402
0.00276018
0.00268196
0.00260546
0.00253063
0.00245739
0.00238568
0.00231546
0.00224666
0.00217923
0.00211314
0.00204833
0.00198477
0.00192241
0.00186122
0.00180115
0.00174217
0.00168424
0.00162733
0.00157142
0.00151648
0.00146248
0.00140938
0.00135709
0.00130554
0.00125466
0.00120449
0.00115525
0.00110735
0.00106118
0.00101683
0.000973551
0.000929302
0.00088037
0.000821165
0.000744724
0.000644877
0.00052076
0.000381588
0.000246371
0.000135656
6.10338e-05
2.10533e-05
5.05554e-06
7.34848e-07
5.34948e-08
1.54556e-09
1.39988e-11
2.57783e-13
2.28074e-13
2.27899e-13
2.27586e-13
2.26343e-13
2.22983e-13
2.16677e-13
2.07583e-13
1.96823e-13
1.85835e-13
1.75639e-13
1.66557e-13
1.58398e-13
1.50781e-13
1.43364e-13
1.35933e-13
1.28415e-13
1.20831e-13
1.13249e-13
1.0574e-13
9.83503e-14
9.1096e-14
8.39705e-14
7.6953e-14
7.00183e-14
6.31441e-14
5.63167e-14
4.95329e-14
4.27941e-14
3.60965e-14
0.112295
0.112295
0.112295
0.112295
0.112295
0.112295
0.112295
0.112295
0.112295
0.112295
0.112295
0.112295
0.112295
0.112295
0.112295
0.112295
0.112295
0.112295
0.112295
0.112295
0.112295
0.112295
0.112295
0.112295
0.112295
0.112295
0.112295
0.112295
0.112295
0.112295
0.112295
0.112295
0.112295
0.112295
0.112295
0.112295
0.112295
0.112295
0.112295
0.112295
0.112295
0.112295
0.112295
0.112295
0.112295
0.112295
0.112295
0.112292
0.112278
0.112135
0.109654
0.0714899
0.0172977
0.00820163
0.00782048
0.00755783
0.0072927
0.00704091
0.00680428
0.00658074
0.00636888
0.0061676
0.00597596
0.00579313
0.00561838
0.00545107
0.00529063
0.00513656
0.00498839
0.00484573
0.00470821
0.00457549
0.00444728
0.0043233
0.00420329
0.00408704
0.00397432
0.00386495
0.00375874
0.00365554
0.00355519
0.00345755
0.00336249
0.00326989
0.00317963
0.00309161
0.00300572
0.00292189
0.00284001
0.00276
0.0026818
0.00260532
0.0025305
0.00245727
0.00238558
0.00231536
0.00224657
0.00217916
0.00211307
0.00204827
0.00198472
0.00192237
0.00186118
0.00180112
0.00174214
0.00168421
0.00162731
0.0015714
0.00151646
0.00146247
0.00140937
0.00135709
0.00130554
0.00125466
0.00120449
0.00115526
0.00110736
0.00106119
0.00101684
0.000973562
0.000929316
0.00088039
0.000821196
0.000744772
0.000644947
0.00052085
0.000381688
0.000246462
0.000135724
6.10737e-05
2.10708e-05
5.06083e-06
7.35797e-07
5.35791e-08
1.5485e-09
1.403e-11
2.57853e-13
2.28065e-13
2.2789e-13
2.27577e-13
2.26335e-13
2.22976e-13
2.16671e-13
2.07577e-13
1.96818e-13
1.85831e-13
1.75635e-13
1.66553e-13
1.58395e-13
1.50778e-13
1.43361e-13
1.35931e-13
1.28413e-13
1.20829e-13
1.13248e-13
1.05739e-13
9.8349e-14
9.10949e-14
8.39696e-14
7.69522e-14
7.00176e-14
6.31436e-14
5.63163e-14
4.95327e-14
4.27939e-14
3.60964e-14
0.112295
0.112295
0.112295
0.112295
0.112295
0.112295
0.112295
0.112295
0.112295
0.112295
0.112295
0.112295
0.112295
0.112295
0.112295
0.112295
0.112295
0.112295
0.112295
0.112295
0.112295
0.112295
0.112295
0.112295
0.112295
0.112295
0.112295
0.112295
0.112295
0.112295
0.112295
0.112295
0.112295
0.112295
0.112295
0.112295
0.112295
0.112295
0.112295
0.112295
0.112295
0.112295
0.112295
0.112295
0.112295
0.112295
0.112294
0.112291
0.112272
0.112074
0.108626
0.0636591
0.0148944
0.00815174
0.00781673
0.00755273
0.00728734
0.00703614
0.00679999
0.00657684
0.00636532
0.00616436
0.00597299
0.00579041
0.00561588
0.00544877
0.00528851
0.0051346
0.00498659
0.00484406
0.00470666
0.00457406
0.00444595
0.00432206
0.00420215
0.00408597
0.00397333
0.00386403
0.00375789
0.00365475
0.00355445
0.00345686
0.00336185
0.00326929
0.00317908
0.00309109
0.00300525
0.00292144
0.00283959
0.00275962
0.00268144
0.00260499
0.00253019
0.00245699
0.00238532
0.00231512
0.00224635
0.00217895
0.00211288
0.0020481
0.00198456
0.00192222
0.00186104
0.00180099
0.00174203
0.00168411
0.00162722
0.00157132
0.00151639
0.0014624
0.00140931
0.00135703
0.00130549
0.00125461
0.00120445
0.00115522
0.00110732
0.00106116
0.00101681
0.000973538
0.000929296
0.000880375
0.000821187
0.000744771
0.000644956
0.000520869
0.000381714
0.000246489
0.000135746
6.10882e-05
2.10777e-05
5.06304e-06
7.36223e-07
5.36196e-08
1.55e-09
1.40468e-11
2.57894e-13
2.28061e-13
2.27886e-13
2.27574e-13
2.26331e-13
2.22973e-13
2.16668e-13
2.07575e-13
1.96816e-13
1.85829e-13
1.75633e-13
1.66552e-13
1.58393e-13
1.50777e-13
1.4336e-13
1.3593e-13
1.28412e-13
1.20828e-13
1.13247e-13
1.05738e-13
9.83486e-14
9.10947e-14
8.39694e-14
7.69521e-14
7.00175e-14
6.31435e-14
5.63163e-14
4.95326e-14
4.27939e-14
3.60964e-14
0.112295
0.112295
0.112295
0.112295
0.112295
0.112295
0.112295
0.112295
0.112295
0.112295
0.112295
0.112295
0.112295
0.112295
0.112295
0.112295
0.112295
0.112295
0.112295
0.112295
0.112295
0.112295
0.112295
0.112295
0.112295
0.112295
0.112295
0.112295
0.112295
0.112295
0.112295
0.112295
0.112295
0.112295
0.112295
0.112295
0.112295
0.112295
0.112295
0.112295
0.112295
0.112295
0.112295
0.112295
0.112295
0.112295
0.112294
0.11229
0.112262
0.111977
0.10693
0.0549265
0.0127477
0.0081157
0.00781162
0.00754572
0.00728031
0.00702985
0.00679428
0.00657162
0.00636054
0.00615996
0.00596895
0.00578668
0.00561243
0.00544558
0.00528555
0.00513185
0.00498402
0.00484167
0.00470444
0.00457198
0.00444401
0.00432025
0.00420045
0.00408438
0.00397184
0.00386263
0.00375658
0.00365352
0.0035533
0.00345578
0.00336083
0.00326834
0.00317818
0.00309025
0.00300445
0.00292069
0.00283889
0.00275896
0.00268082
0.00260441
0.00252964
0.00245647
0.00238483
0.00231467
0.00224592
0.00217855
0.00211251
0.00204775
0.00198423
0.00192191
0.00186076
0.00180072
0.00174177
0.00168387
0.00162699
0.00157111
0.00151619
0.00146222
0.00140914
0.00135688
0.00130534
0.00125448
0.00120433
0.00115511
0.00110722
0.00106106
0.00101672
0.000973459
0.000929226
0.000880315
0.000821136
0.000744728
0.000644922
0.000520845
0.000381699
0.000246483
0.000135746
6.10898e-05
2.1079e-05
5.06359e-06
7.36354e-07
5.36338e-08
1.55057e-09
1.40537e-11
2.57912e-13
2.28061e-13
2.27885e-13
2.27573e-13
2.2633e-13
2.22972e-13
2.16667e-13
2.07574e-13
1.96815e-13
1.85828e-13
1.75633e-13
1.66551e-13
1.58393e-13
1.50776e-13
1.43359e-13
1.3593e-13
1.28412e-13
1.20828e-13
1.13247e-13
1.05738e-13
9.83486e-14
9.10946e-14
8.39694e-14
7.69521e-14
7.00175e-14
6.31435e-14
5.63163e-14
4.95327e-14
4.2794e-14
3.60965e-14
0.112295
0.112295
0.112295
0.112295
0.112295
0.112295
0.112295
0.112295
0.112295
0.112295
0.112295
0.112295
0.112295
0.112295
0.112295
0.112295
0.112295
0.112295
0.112295
0.112295
0.112295
0.112295
0.112295
0.112295
0.112295
0.112295
0.112295
0.112295
0.112295
0.112295
0.112295
0.112295
0.112295
0.112295
0.112295
0.112295
0.112295
0.112295
0.112295
0.112295
0.112295
0.112295
0.112295
0.112295
0.112295
0.112295
0.112293
0.112287
0.112246
0.111812
0.104129
0.0457935
0.0110221
0.00809163
0.00780487
0.00753663
0.00727151
0.00702192
0.00678705
0.00656498
0.00635442
0.00615431
0.00596371
0.00578182
0.00560792
0.00544138
0.00528163
0.00512819
0.00498061
0.00483847
0.00470144
0.00456916
0.00444136
0.00431776
0.00419811
0.00408218
0.00396976
0.00386067
0.00375473
0.00365177
0.00355165
0.00345422
0.00335936
0.00326694
0.00317686
0.003089
0.00300327
0.00291958
0.00283783
0.00275796
0.00267987
0.00260351
0.00252879
0.00245567
0.00238407
0.00231394
0.00224524
0.0021779
0.00211189
0.00204717
0.00198368
0.00192139
0.00186026
0.00180025
0.00174133
0.00168346
0.0016266
0.00157073
0.00151584
0.00146189
0.00140883
0.00135658
0.00130506
0.00125422
0.00120408
0.00115488
0.001107
0.00106087
0.00101654
0.000973291
0.000929074
0.000880176
0.00082101
0.000744617
0.000644826
0.000520768
0.000381644
0.00024645
0.000135729
6.10837e-05
2.10777e-05
5.06351e-06
7.36378e-07
5.36382e-08
1.55077e-09
1.40561e-11
2.57919e-13
2.2806e-13
2.27885e-13
2.27572e-13
2.2633e-13
2.22972e-13
2.16667e-13
2.07574e-13
1.96815e-13
1.85828e-13
1.75633e-13
1.66551e-13
1.58393e-13
1.50776e-13
1.43359e-13
1.3593e-13
1.28412e-13
1.20828e-13
1.13247e-13
1.05738e-13
9.83487e-14
9.10947e-14
8.39695e-14
7.69521e-14
7.00176e-14
6.31436e-14
5.63164e-14
4.95327e-14
4.2794e-14
3.60965e-14
0.112295
0.112295
0.112295
0.112295
0.112295
0.112295
0.112295
0.112295
0.112295
0.112295
0.112295
0.112295
0.112295
0.112295
0.112295
0.112295
0.112295
0.112295
0.112295
0.112295
0.112295
0.112295
0.112295
0.112295
0.112295
0.112295
0.112295
0.112295
0.112295
0.112295
0.112295
0.112295
0.112295
0.112295
0.112295
0.112295
0.112295
0.112295
0.112295
0.112295
0.112295
0.112295
0.112295
0.112295
0.112295
0.112294
0.112292
0.112283
0.112219
0.111532
0.0994918
0.036871
0.00974273
0.00807396
0.00779616
0.00752537
0.00726084
0.00701228
0.00677821
0.00655682
0.00634688
0.00614731
0.00595721
0.00577577
0.00560228
0.0054361
0.00527669
0.00512356
0.00497626
0.00483439
0.00469759
0.00456554
0.00443794
0.00431453
0.00419505
0.00407929
0.00396703
0.00385808
0.00375227
0.00364944
0.00354944
0.00345212
0.00335737
0.00326505
0.00317506
0.00308729
0.00300164
0.00291803
0.00283636
0.00275655
0.00267853
0.00260223
0.00252758
0.00245451
0.00238297
0.00231289
0.00224423
0.00217695
0.00211098
0.0020463
0.00198285
0.0019206
0.00185951
0.00179954
0.00174065
0.0016828
0.00162598
0.00157014
0.00151528
0.00146135
0.00140832
0.0013561
0.00130461
0.00125378
0.00120367
0.00115449
0.00110664
0.00106053
0.00101622
0.000972998
0.000928803
0.000879926
0.00082078
0.000744407
0.000644638
0.000520609
0.000381521
0.000246368
0.000135684
6.10655e-05
2.10728e-05
5.06282e-06
7.36344e-07
5.36395e-08
1.55089e-09
1.40575e-11
2.57922e-13
2.28061e-13
2.27885e-13
2.27573e-13
2.26331e-13
2.22972e-13
2.16667e-13
2.07574e-13
1.96816e-13
1.85828e-13
1.75633e-13
1.66551e-13
1.58393e-13
1.50777e-13
1.43359e-13
1.3593e-13
1.28412e-13
1.20828e-13
1.13247e-13
1.05739e-13
9.83488e-14
9.10948e-14
8.39696e-14
7.69523e-14
7.00177e-14
6.31437e-14
5.63164e-14
4.95328e-14
4.27941e-14
3.60966e-14
0.112295
0.112295
0.112295
0.112295
0.112295
0.112295
0.112295
0.112295
0.112295
0.112295
0.112295
0.112295
0.112295
0.112295
0.112295
0.112295
0.112295
0.112295
0.112295
0.112295
0.112295
0.112295
0.112295
0.112295
0.112295
0.112295
0.112295
0.112295
0.112295
0.112295
0.112295
0.112295
0.112295
0.112295
0.112295
0.112295
0.112295
0.112295
0.112295
0.112295
0.112295
0.112295
0.112295
0.112295
0.112295
0.112294
0.112291
0.112276
0.112176
0.111023
0.0919107
0.0286246
0.00896652
0.0080586
0.00778506
0.00751189
0.0072483
0.00700088
0.00676772
0.00654712
0.00633787
0.00613894
0.00594941
0.00576848
0.00559545
0.0054297
0.00527068
0.0051179
0.00497093
0.00482936
0.00469284
0.00456105
0.00443369
0.0043105
0.00419123
0.00407566
0.00396358
0.00385481
0.00374916
0.00364648
0.00354661
0.00344943
0.0033548
0.0032626
0.00317272
0.00308505
0.00299951
0.00291599
0.00283441
0.00275469
0.00267675
0.00260053
0.00252595
0.00245295
0.00238147
0.00231146
0.00224286
0.00217563
0.00210972
0.00204509
0.00198169
0.00191949
0.00185845
0.00179852
0.00173967
0.00168187
0.00162508
0.00156929
0.00151446
0.00146057
0.00140757
0.00135538
0.00130392
0.00125313
0.00120305
0.00115391
0.00110609
0.00106001
0.00101574
0.000972543
0.000928379
0.000879528
0.000820408
0.000744061
0.000644322
0.000520333
0.000381302
0.000246216
0.000135598
6.10275e-05
2.10613e-05
5.06075e-06
7.3618e-07
5.3637e-08
1.55103e-09
1.40597e-11
2.57927e-13
2.28061e-13
2.27886e-13
2.27573e-13
2.26331e-13
2.22973e-13
2.16668e-13
2.07575e-13
1.96816e-13
1.85829e-13
1.75633e-13
1.66552e-13
1.58393e-13
1.50777e-13
1.4336e-13
1.3593e-13
1.28412e-13
1.20828e-13
1.13247e-13
1.05739e-13
9.8349e-14
9.1095e-14
8.39697e-14
7.69524e-14
7.00178e-14
6.31438e-14
5.63165e-14
4.95329e-14
4.27942e-14
3.60967e-14
0.112295
0.112295
0.112295
0.112295
0.112295
0.112295
0.112295
0.112295
0.112295
0.112295
0.112295
0.112295
0.112295
0.112295
0.112295
0.112295
0.112295
0.112295
0.112295
0.112295
0.112295
0.112295
0.112295
0.112295
0.112295
0.112295
0.112295
0.112295
0.112295
0.112295
0.112295
0.112295
0.112295
0.112295
0.112295
0.112295
0.112295
0.112295
0.112295
0.112295
0.112295
0.112295
0.112295
0.112295
0.112294
0.112293
0.112288
0.112264
0.1121
0.11007
0.0803454
0.0214001
0.00856847
0.00804347
0.00777105
0.00749619
0.00723389
0.00698773
0.00675558
0.00653586
0.00632741
0.00612918
0.00594028
0.00575992
0.00558742
0.00542215
0.00526357
0.00511119
0.00496459
0.00482336
0.00468716
0.00455567
0.00442858
0.00430565
0.00418661
0.00407127
0.00395939
0.00385081
0.00374535
0.00364284
0.00354314
0.00344611
0.00335162
0.00325956
0.00316981
0.00308226
0.00299683
0.00291342
0.00283195
0.00275233
0.00267449
0.00259835
0.00252386
0.00245094
0.00237954
0.00230961
0.00224108
0.00217392
0.00210808
0.00204351
0.00198017
0.00191802
0.00185704
0.00179716
0.00173837
0.00168061
0.00162387
0.00156812
0.00151334
0.0014595
0.00140654
0.0013544
0.00130298
0.00125223
0.00120219
0.00115309
0.00110531
0.00105927
0.00101504
0.000971892
0.000927766
0.000878948
0.000819859
0.000743542
0.00064384
0.000519906
0.000380956
0.000245971
0.000135453
6.09601e-05
2.10391e-05
5.05628e-06
7.35734e-07
5.36227e-08
1.55109e-09
1.40633e-11
2.57939e-13
2.28062e-13
2.27887e-13
2.27574e-13
2.26332e-13
2.22973e-13
2.16669e-13
2.07576e-13
1.96817e-13
1.8583e-13
1.75634e-13
1.66552e-13
1.58394e-13
1.50777e-13
1.4336e-13
1.3593e-13
1.28412e-13
1.20829e-13
1.13248e-13
1.05739e-13
9.83491e-14
9.10951e-14
8.39698e-14
7.69525e-14
7.00179e-14
6.31439e-14
5.63166e-14
4.9533e-14
4.27942e-14
3.60967e-14
0.112295
0.112295
0.112295
0.112295
0.112295
0.112295
0.112295
0.112295
0.112295
0.112295
0.112295
0.112295
0.112295
0.112295
0.112295
0.112295
0.112295
0.112295
0.112295
0.112295
0.112295
0.112295
0.112295
0.112295
0.112295
0.112295
0.112295
0.112295
0.112295
0.112295
0.112295
0.112295
0.112295
0.112295
0.112295
0.112295
0.112295
0.112295
0.112295
0.112295
0.112295
0.112295
0.112295
0.112295
0.112294
0.112292
0.112284
0.112246
0.111964
0.108255
0.0653638
0.0157653
0.00839159
0.00802767
0.0077538
0.00747838
0.00721766
0.00697285
0.00674181
0.00652308
0.00631549
0.00611804
0.00592984
0.00575012
0.00557819
0.00541345
0.00525536
0.00510343
0.00495724
0.0048164
0.00468055
0.00454938
0.0044226
0.00429995
0.00418118
0.00406608
0.00395444
0.00384608
0.00374082
0.00363851
0.00353899
0.00344213
0.00334781
0.0032559
0.00316629
0.00307889
0.00299359
0.00291031
0.00282895
0.00274944
0.00267171
0.00259568
0.00252128
0.00244846
0.00237715
0.0023073
0.00223886
0.00217178
0.00210601
0.00204151
0.00197825
0.00191617
0.00185524
0.00179543
0.0017367
0.001679
0.00162232
0.00156663
0.0015119
0.0014581
0.0014052
0.00135311
0.00130174
0.00125104
0.00120106
0.001152
0.00110428
0.00105829
0.00101412
0.000971014
0.000926934
0.000878154
0.000819098
0.000742814
0.000643155
0.000519289
0.000380448
0.000245605
0.00013523
6.0853e-05
2.10019e-05
5.04812e-06
7.34803e-07
5.35822e-08
1.55079e-09
1.4068e-11
2.57959e-13
2.28063e-13
2.27888e-13
2.27575e-13
2.26333e-13
2.22974e-13
2.16669e-13
2.07576e-13
1.96818e-13
1.8583e-13
1.75634e-13
1.66553e-13
1.58394e-13
1.50778e-13
1.4336e-13
1.35931e-13
1.28413e-13
1.20829e-13
1.13248e-13
1.05739e-13
9.83493e-14
9.10953e-14
8.397e-14
7.69526e-14
7.0018e-14
6.3144e-14
5.63167e-14
4.9533e-14
4.27943e-14
3.60968e-14
0.112295
0.112295
0.112295
0.112295
0.112295
0.112295
0.112295
0.112295
0.112295
0.112295
0.112295
0.112295
0.112295
0.112295
0.112295
0.112295
0.112295
0.112295
0.112295
0.112295
0.112295
0.112295
0.112295
0.112295
0.112295
0.112295
0.112295
0.112295
0.112295
0.112295
0.112295
0.112295
0.112295
0.112295
0.112295
0.112295
0.112295
0.112295
0.112295
0.112295
0.112295
0.112295
0.112295
0.112294
0.112293
0.11229
0.112277
0.112213
0.111708
0.104639
0.049654
0.0119745
0.00831618
0.00801052
0.00773351
0.00745858
0.00719967
0.00695631
0.00672648
0.0065088
0.00630217
0.00610556
0.00591813
0.0057391
0.0055678
0.00540364
0.00524607
0.00509463
0.00494889
0.00480846
0.004673
0.00454219
0.00441575
0.00429341
0.00417494
0.00406011
0.00394873
0.00384061
0.00373558
0.00363348
0.00353416
0.0034375
0.00334335
0.00325161
0.00316217
0.00307492
0.00298977
0.00290663
0.0028254
0.00274602
0.00266841
0.00259249
0.00251821
0.00244549
0.00237428
0.00230453
0.00223618
0.00216919
0.00210351
0.00203909
0.0019759
0.0019139
0.00185305
0.00179331
0.00173465
0.00167702
0.0016204
0.00156477
0.0015101
0.00145637
0.00140353
0.0013515
0.00130019
0.00124955
0.00119962
0.00115063
0.00110296
0.00105704
0.00101293
0.000969884
0.000925857
0.000877119
0.000818096
0.000741844
0.000642229
0.000518446
0.000379745
0.000245089
0.000134911
6.0695e-05
2.09446e-05
5.03479e-06
7.33129e-07
5.34957e-08
1.54962e-09
1.40705e-11
2.57986e-13
2.28062e-13
2.27888e-13
2.27576e-13
2.26334e-13
2.22975e-13
2.1667e-13
2.07577e-13
1.96818e-13
1.85831e-13
1.75635e-13
1.66553e-13
1.58394e-13
1.50778e-13
1.43361e-13
1.35931e-13
1.28413e-13
1.20829e-13
1.13248e-13
1.05739e-13
9.83494e-14
9.10954e-14
8.39701e-14
7.69527e-14
7.00181e-14
6.31441e-14
5.63168e-14
4.95331e-14
4.27944e-14
3.60968e-14
0.112295
0.112295
0.112295
0.112295
0.112295
0.112295
0.112295
0.112295
0.112295
0.112295
0.112295
0.112295
0.112295
0.112295
0.112295
0.112295
0.112295
0.112295
0.112295
0.112295
0.112295
0.112295
0.112295
0.112295
0.112295
0.112295
0.112295
0.112295
0.112295
0.112295
0.112295
0.112295
0.112295
0.112295
0.112295
0.112295
0.112295
0.112295
0.112295
0.112295
0.112295
0.112295
0.112295
0.112294
0.112292
0.112286
0.112265
0.112154
0.111194
0.0974956
0.0355717
0.00984825
0.00827833
0.0079912
0.00771054
0.00743691
0.00717997
0.00693816
0.00670963
0.00649311
0.00628749
0.0060918
0.00590518
0.0057269
0.00555628
0.00539273
0.00523574
0.00508483
0.00493957
0.0047996
0.00466455
0.00453413
0.00440805
0.00428605
0.0041679
0.00405337
0.00394227
0.00383441
0.00372962
0.00362776
0.00352866
0.0034322
0.00333826
0.00324671
0.00315744
0.00307036
0.00298537
0.00290238
0.0028213
0.00274206
0.00266458
0.00258879
0.00251463
0.00244203
0.00237093
0.00230129
0.00223304
0.00216614
0.00210056
0.00203623
0.00197313
0.00191122
0.00185045
0.00179079
0.0017322
0.00167465
0.0016181
0.00156255
0.00150795
0.00145429
0.00140151
0.00134955
0.00129831
0.00124773
0.00119787
0.00114895
0.00110135
0.0010555
0.00101146
0.000968482
0.000924513
0.000875819
0.000816827
0.000740602
0.000641031
0.000517342
0.000378813
0.000244396
0.000134475
6.04748e-05
2.08622e-05
5.01464e-06
7.30412e-07
5.33373e-08
1.54676e-09
1.40649e-11
2.58006e-13
2.28059e-13
2.27887e-13
2.27576e-13
2.26335e-13
2.22976e-13
2.16671e-13
2.07578e-13
1.96819e-13
1.85831e-13
1.75635e-13
1.66554e-13
1.58395e-13
1.50778e-13
1.43361e-13
1.35931e-13
1.28413e-13
1.20829e-13
1.13248e-13
1.05739e-13
9.83496e-14
9.10955e-14
8.39702e-14
7.69528e-14
7.00182e-14
6.31442e-14
5.63169e-14
4.95332e-14
4.27944e-14
3.60969e-14
0.112295
0.112295
0.112295
0.112295
0.112295
0.112295
0.112295
0.112295
0.112295
0.112295
0.112295
0.112295
0.112295
0.112295
0.112295
0.112295
0.112295
0.112295
0.112295
0.112295
0.112295
0.112295
0.112295
0.112295
0.112295
0.112295
0.112295
0.112295
0.112295
0.112295
0.112295
0.112295
0.112295
0.112295
0.112295
0.112295
0.112295
0.112295
0.112295
0.112295
0.112295
0.112295
0.112294
0.112293
0.11229
0.112281
0.112246
0.112044
0.110095
0.0844966
0.024169
0.00891573
0.00825039
0.00796859
0.00768513
0.00741349
0.00715864
0.00691847
0.00669136
0.00647606
0.00627153
0.0060768
0.00589107
0.00571358
0.00554368
0.00538079
0.00522441
0.00507405
0.00492932
0.00478982
0.00465523
0.00452522
0.00439953
0.0042779
0.00416008
0.00404587
0.00393507
0.00382749
0.00372298
0.00362136
0.0035225
0.00342627
0.00333254
0.00324119
0.00315212
0.00306522
0.0029804
0.00289757
0.00281666
0.00273757
0.00266023
0.00258458
0.00251055
0.00243807
0.0023671
0.00229757
0.00222943
0.00216264
0.00209716
0.00203293
0.00196993
0.00190811
0.00184743
0.00178786
0.00172935
0.00167188
0.00161542
0.00155994
0.00150542
0.00145184
0.00139914
0.00134725
0.00129608
0.00124559
0.0011958
0.00114695
0.00109943
0.00105366
0.00100969
0.000966792
0.000922885
0.000874235
0.00081527
0.000739064
0.000639531
0.000515945
0.000377621
0.000243502
0.000133905
6.01812e-05
2.07494e-05
4.98601e-06
7.26323e-07
5.3076e-08
1.54117e-09
1.40411e-11
2.57999e-13
2.28048e-13
2.27882e-13
2.27575e-13
2.26336e-13
2.22977e-13
2.16672e-13
2.07578e-13
1.96819e-13
1.85832e-13
1.75636e-13
1.66554e-13
1.58395e-13
1.50779e-13
1.43361e-13
1.35931e-13
1.28413e-13
1.2083e-13
1.13248e-13
1.0574e-13
9.83498e-14
9.10957e-14
8.39704e-14
7.6953e-14
7.00184e-14
6.31443e-14
5.6317e-14
4.95333e-14
4.27945e-14
3.6097e-14
0.112295
0.112295
0.112295
0.112295
0.112295
0.112295
0.112295
0.112295
0.112295
0.112295
0.112295
0.112295
0.112295
0.112295
0.112295
0.112295
0.112295
0.112295
0.112295
0.112295
0.112295
0.112295
0.112295
0.112295
0.112295
0.112295
0.112295
0.112295
0.112295
0.112295
0.112295
0.112295
0.112295
0.112295
0.112295
0.112295
0.112295
0.112295
0.112295
0.112295
0.112295
0.112294
0.112293
0.112292
0.112287
0.112272
0.112211
0.111828
0.107669
0.0651561
0.0160156
0.00860237
0.00822424
0.00794169
0.00765751
0.00738842
0.00713574
0.00689733
0.00667172
0.00645774
0.00625436
0.00606066
0.00587584
0.00569919
0.00553005
0.00536787
0.00521213
0.00506236
0.00491818
0.00477919
0.00464507
0.0045155
0.00439023
0.00426898
0.00415152
0.00403765
0.00392717
0.00381989
0.00371566
0.00361431
0.00351571
0.00341971
0.00332621
0.00323508
0.00314621
0.00305951
0.00297487
0.00289223
0.00281148
0.00273255
0.00265537
0.00257986
0.00250597
0.00243363
0.00236279
0.00229338
0.00222537
0.00215869
0.00209332
0.0020292
0.0019663
0.00190458
0.001844
0.00178452
0.00172611
0.00166873
0.00161236
0.00155696
0.00150253
0.00144903
0.00139641
0.0013446
0.00129352
0.0012431
0.0011934
0.00114463
0.0010972
0.00105151
0.00100763
0.000964805
0.000920962
0.000872354
0.000813407
0.000737207
0.000637703
0.000514227
0.000376142
0.000242381
0.000133183
5.98042e-05
2.06015e-05
4.9473e-06
7.20534e-07
5.26789e-08
1.53165e-09
1.39844e-11
2.57922e-13
2.28023e-13
2.27868e-13
2.2757e-13
2.26336e-13
2.22979e-13
2.16673e-13
2.07579e-13
1.9682e-13
1.85832e-13
1.75636e-13
1.66554e-13
1.58396e-13
1.50779e-13
1.43362e-13
1.35932e-13
1.28414e-13
1.2083e-13
1.13249e-13
1.0574e-13
9.835e-14
9.10959e-14
8.39705e-14
7.69531e-14
7.00185e-14
6.31444e-14
5.63171e-14
4.95334e-14
4.27946e-14
3.60971e-14
0.112295
0.112295
0.112295
0.112295
0.112295
0.112295
0.112295
0.112295
0.112295
0.112295
0.112295
0.112295
0.112295
0.112295
0.112295
0.112295
0.112295
0.112295
0.112295
0.112295
0.112295
0.112295
0.112295
0.112295
0.112295
0.112295
0.112295
0.112295
0.112295
0.112295
0.112295
0.112295
0.112295
0.112295
0.112295
0.112295
0.112295
0.112295
0.112295
0.112295
0.112294
0.112294
0.112292
0.11229
0.112282
0.112257
0.112146
0.111365
0.1021
0.0449897
0.0113892
0.00850381
0.00819728
0.00791087
0.00762798
0.00736174
0.00711134
0.0068748
0.0066508
0.00643821
0.00623605
0.00604343
0.00585959
0.00568381
0.00551547
0.00535402
0.00519895
0.00504981
0.0049062
0.00476774
0.00463412
0.00450502
0.00438017
0.00425933
0.00414226
0.00402874
0.0039186
0.00381164
0.0037077
0.00360664
0.0035083
0.00341256
0.0033193
0.00322839
0.00313974
0.00305325
0.00296881
0.00288635
0.00280578
0.00272702
0.00265001
0.00257466
0.00250092
0.00242872
0.00235802
0.00228874
0.00222086
0.00215431
0.00208905
0.00202505
0.00196226
0.00190065
0.00184017
0.00178079
0.00172248
0.0016652
0.00160892
0.00155362
0.00149927
0.00144586
0.00139333
0.00134161
0.00129061
0.00124028
0.00119066
0.00114198
0.00109464
0.00104904
0.00100525
0.000962514