/*--------------------------------*- C++ -*----------------------------------*\
  =========                 |
  \\      /  F ield         | OpenFOAM: The Open Source CFD Toolbox
   \\    /   O peration     | Website:  https://openfoam.org
    \\  /    A nd           | Version:  13
     \\/     M anipulation  |
\*---------------------------------------------------------------------------*/
FoamFile
{
    format      ascii;
    class       volScalarField;
    location    "0.0015";
    object      O2;
}
// * * * * * * * * * * * * * * * * * * * * * * * * * * * * * * * * * * * * * //

dimensions      [];

internalField   nonuniform List<scalar> 
33334
(
0.250541
0.250541
0.250541
0.250541
0.250541
0.250541
0.250541
0.250541
0.250541
0.250541
0.250541
0.250541
0.250541
0.250541
0.250541
0.250541
0.250541
0.250541
0.250541
0.250541
0.250541
0.250541
0.250541
0.250541
0.250541
0.250541
0.250541
0.250541
0.250541
0.250541
0.250541
0.250541
0.250541
0.250541
0.250541
0.250541
0.250541
0.250541
0.250541
0.250541
0.250541
0.250541
0.250541
0.250541
0.250541
0.250541
0.250542
0.250544
0.250556
0.250683
0.252829
0.295094
0.406813
0.434997
0.4361
0.436564
0.437032
0.437481
0.437903
0.438301
0.438679
0.439037
0.439378
0.439704
0.440015
0.440313
0.440598
0.440872
0.441136
0.44139
0.441634
0.44187
0.442098
0.442319
0.442532
0.442739
0.442939
0.443134
0.443322
0.443506
0.443684
0.443858
0.444027
0.444191
0.444352
0.444508
0.444661
0.44481
0.444955
0.445097
0.445236
0.445372
0.445505
0.445635
0.445763
0.445888
0.44601
0.44613
0.446247
0.446362
0.446475
0.446586
0.446694
0.446801
0.446906
0.447009
0.44711
0.447209
0.447307
0.447403
0.447497
0.44759
0.447681
0.447772
0.447861
0.447948
0.448033
0.448115
0.448194
0.448271
0.44835
0.448437
0.448542
0.448678
0.448855
0.449076
0.449323
0.449563
0.44976
0.449892
0.449963
0.449991
0.449999
0.45
0.45
0.45
0.45
0.45
0.45
0.45
0.45
0.45
0.45
0.45
0.45
0.45
0.45
0.45
0.45
0.45
0.45
0.45
0.45
0.45
0.45
0.45
0.45
0.45
0.45
0.45
0.45
0.45
0.45
0.45
0.45
0.45
0.250541
0.250541
0.250541
0.250541
0.250541
0.250541
0.250541
0.250541
0.250541
0.250541
0.250541
0.250541
0.250541
0.250541
0.250541
0.250541
0.250541
0.250541
0.250541
0.250541
0.250541
0.250541
0.250541
0.250541
0.250541
0.250541
0.250541
0.250541
0.250541
0.250541
0.250541
0.250541
0.250541
0.250541
0.250541
0.250541
0.250541
0.250541
0.250541
0.250541
0.250541
0.250541
0.250541
0.250541
0.250541
0.250541
0.250542
0.250544
0.250557
0.250689
0.252967
0.297602
0.40827
0.435065
0.436101
0.436565
0.437033
0.437482
0.437904
0.438302
0.438679
0.439037
0.439379
0.439704
0.440015
0.440313
0.440598
0.440872
0.441136
0.44139
0.441634
0.44187
0.442098
0.442319
0.442532
0.442739
0.442939
0.443134
0.443322
0.443506
0.443684
0.443858
0.444027
0.444191
0.444352
0.444508
0.444661
0.44481
0.444955
0.445097
0.445236
0.445372
0.445505
0.445635
0.445763
0.445887
0.44601
0.446129
0.446247
0.446362
0.446475
0.446586
0.446694
0.446801
0.446906
0.447009
0.44711
0.447209
0.447307
0.447403
0.447497
0.44759
0.447681
0.447772
0.447861
0.447948
0.448033
0.448115
0.448194
0.448271
0.44835
0.448437
0.448542
0.448678
0.448855
0.449076
0.449323
0.449563
0.449759
0.449892
0.449963
0.449991
0.449999
0.45
0.45
0.45
0.45
0.45
0.45
0.45
0.45
0.45
0.45
0.45
0.45
0.45
0.45
0.45
0.45
0.45
0.45
0.45
0.45
0.45
0.45
0.45
0.45
0.45
0.45
0.45
0.45
0.45
0.45
0.45
0.45
0.45
0.250541
0.250541
0.250541
0.250541
0.250541
0.250541
0.250541
0.250541
0.250541
0.250541
0.250541
0.250541
0.250541
0.250541
0.250541
0.250541
0.250541
0.250541
0.250541
0.250541
0.250541
0.250541
0.250541
0.250541
0.250541
0.250541
0.250541
0.250541
0.250541
0.250541
0.250541
0.250541
0.250541
0.250541
0.250541
0.250541
0.250541
0.250541
0.250541
0.250541
0.250541
0.250541
0.250541
0.250541
0.250541
0.250541
0.250542
0.250544
0.25056
0.250714
0.253368
0.303216
0.411214
0.435186
0.436102
0.436566
0.437035
0.437484
0.437905
0.438303
0.43868
0.439039
0.43938
0.439705
0.440016
0.440313
0.440599
0.440873
0.441136
0.44139
0.441635
0.441871
0.442099
0.442319
0.442532
0.442739
0.442939
0.443134
0.443322
0.443506
0.443684
0.443858
0.444027
0.444191
0.444352
0.444508
0.444661
0.44481
0.444955
0.445097
0.445236
0.445372
0.445505
0.445635
0.445763
0.445887
0.446009
0.446129
0.446247
0.446362
0.446475
0.446585
0.446694
0.446801
0.446906
0.447009
0.44711
0.447209
0.447307
0.447402
0.447497
0.44759
0.447681
0.447772
0.447861
0.447948
0.448033
0.448115
0.448194
0.448271
0.448349
0.448436
0.448542
0.448677
0.448855
0.449075
0.449323
0.449563
0.449759
0.449892
0.449963
0.449991
0.449999
0.45
0.45
0.45
0.45
0.45
0.45
0.45
0.45
0.45
0.45
0.45
0.45
0.45
0.45
0.45
0.45
0.45
0.45
0.45
0.45
0.45
0.45
0.45
0.45
0.45
0.45
0.45
0.45
0.45
0.45
0.45
0.45
0.45
0.250541
0.250541
0.250541
0.250541
0.250541
0.250541
0.250541
0.250541
0.250541
0.250541
0.250541
0.250541
0.250541
0.250541
0.250541
0.250541
0.250541
0.250541
0.250541
0.250541
0.250541
0.250541
0.250541
0.250541
0.250541
0.250541
0.250541
0.250541
0.250541
0.250541
0.250541
0.250541
0.250541
0.250541
0.250541
0.250541
0.250541
0.250541
0.250541
0.250541
0.250541
0.250541
0.250541
0.250541
0.250541
0.250541
0.250542
0.250545
0.250564
0.250759
0.254084
0.311745
0.415055
0.435317
0.436105
0.43657
0.43704
0.437488
0.437909
0.438306
0.438683
0.439041
0.439382
0.439707
0.440018
0.440315
0.4406
0.440874
0.441138
0.441391
0.441636
0.441871
0.442099
0.44232
0.442533
0.442739
0.44294
0.443134
0.443323
0.443506
0.443685
0.443858
0.444027
0.444191
0.444352
0.444508
0.444661
0.44481
0.444955
0.445097
0.445236
0.445372
0.445505
0.445635
0.445763
0.445887
0.446009
0.446129
0.446247
0.446362
0.446475
0.446585
0.446694
0.446801
0.446906
0.447008
0.44711
0.447209
0.447306
0.447402
0.447497
0.44759
0.447681
0.447771
0.447861
0.447948
0.448033
0.448115
0.448194
0.448271
0.448349
0.448436
0.448541
0.448677
0.448855
0.449075
0.449322
0.449562
0.449759
0.449892
0.449963
0.449991
0.449999
0.45
0.45
0.45
0.45
0.45
0.45
0.45
0.45
0.45
0.45
0.45
0.45
0.45
0.45
0.45
0.45
0.45
0.45
0.45
0.45
0.45
0.45
0.45
0.45
0.45
0.45
0.45
0.45
0.45
0.45
0.45
0.45
0.45
0.250541
0.250541
0.250541
0.250541
0.250541
0.250541
0.250541
0.250541
0.250541
0.250541
0.250541
0.250541
0.250541
0.250541
0.250541
0.250541
0.250541
0.250541
0.250541
0.250541
0.250541
0.250541
0.250541
0.250541
0.250541
0.250541
0.250541
0.250541
0.250541
0.250541
0.250541
0.250541
0.250541
0.250541
0.250541
0.250541
0.250541
0.250541
0.250541
0.250541
0.250541
0.250541
0.250541
0.250541
0.250541
0.250541
0.250542
0.250546
0.250572
0.250825
0.255233
0.32302
0.419276
0.435432
0.436109
0.436576
0.437047
0.437494
0.437914
0.438311
0.438688
0.439045
0.439385
0.43971
0.440021
0.440318
0.440603
0.440876
0.44114
0.441393
0.441637
0.441873
0.442101
0.442321
0.442534
0.442741
0.442941
0.443135
0.443324
0.443507
0.443685
0.443859
0.444028
0.444192
0.444352
0.444509
0.444661
0.44481
0.444956
0.445098
0.445237
0.445372
0.445505
0.445635
0.445763
0.445887
0.44601
0.446129
0.446247
0.446362
0.446475
0.446585
0.446694
0.446801
0.446906
0.447008
0.44711
0.447209
0.447306
0.447402
0.447497
0.44759
0.447681
0.447771
0.447861
0.447948
0.448033
0.448115
0.448194
0.448271
0.448349
0.448436
0.448541
0.448677
0.448854
0.449075
0.449322
0.449562
0.449759
0.449892
0.449963
0.449991
0.449999
0.45
0.45
0.45
0.45
0.45
0.45
0.45
0.45
0.45
0.45
0.45
0.45
0.45
0.45
0.45
0.45
0.45
0.45
0.45
0.45
0.45
0.45
0.45
0.45
0.45
0.45
0.45
0.45
0.45
0.45
0.45
0.45
0.45
0.250541
0.250541
0.250541
0.250541
0.250541
0.250541
0.250541
0.250541
0.250541
0.250541
0.250541
0.250541
0.250541
0.250541
0.250541
0.250541
0.250541
0.250541
0.250541
0.250541
0.250541
0.250541
0.250541
0.250541
0.250541
0.250541
0.250541
0.250541
0.250541
0.250541
0.250541
0.250541
0.250541
0.250541
0.250541
0.250541
0.250541
0.250541
0.250541
0.250541
0.250541
0.250541
0.250541
0.250541
0.250541
0.250542
0.250543
0.250548
0.250583
0.250933
0.257058
0.336929
0.423545
0.435521
0.436116
0.436585
0.437056
0.437502
0.437922
0.438318
0.438694
0.439051
0.439391
0.439715
0.440025
0.440322
0.440607
0.44088
0.441143
0.441396
0.44164
0.441876
0.442103
0.442323
0.442536
0.442742
0.442943
0.443137
0.443325
0.443508
0.443687
0.44386
0.444029
0.444193
0.444353
0.44451
0.444662
0.444811
0.444956
0.445098
0.445237
0.445373
0.445506
0.445636
0.445763
0.445888
0.44601
0.44613
0.446247
0.446362
0.446475
0.446586
0.446694
0.446801
0.446906
0.447009
0.44711
0.447209
0.447307
0.447402
0.447497
0.44759
0.447681
0.447772
0.447861
0.447948
0.448033
0.448115
0.448194
0.448271
0.448349
0.448436
0.448541
0.448677
0.448854
0.449075
0.449322
0.449562
0.449759
0.449891
0.449963
0.449991
0.449999
0.45
0.45
0.45
0.45
0.45
0.45
0.45
0.45
0.45
0.45
0.45
0.45
0.45
0.45
0.45
0.45
0.45
0.45
0.45
0.45
0.45
0.45
0.45
0.45
0.45
0.45
0.45
0.45
0.45
0.45
0.45
0.45
0.45
0.250541
0.250541
0.250541
0.250541
0.250541
0.250541
0.250541
0.250541
0.250541
0.250541
0.250541
0.250541
0.250541
0.250541
0.250541
0.250541
0.250541
0.250541
0.250541
0.250541
0.250541
0.250541
0.250541
0.250541
0.250541
0.250541
0.250541
0.250541
0.250541
0.250541
0.250541
0.250541
0.250541
0.250541
0.250541
0.250541
0.250541
0.250541
0.250541
0.250541
0.250541
0.250541
0.250541
0.250541
0.250541
0.250542
0.250543
0.250551
0.250601
0.251107
0.26007
0.352439
0.427358
0.435585
0.436125
0.436597
0.437069
0.437514
0.437932
0.438327
0.438702
0.439059
0.439398
0.439722
0.440031
0.440328
0.440612
0.440885
0.441147
0.4414
0.441644
0.441879
0.442107
0.442326
0.442539
0.442745
0.442945
0.443139
0.443328
0.443511
0.443689
0.443862
0.44403
0.444195
0.444355
0.444511
0.444663
0.444812
0.444958
0.4451
0.445238
0.445374
0.445507
0.445637
0.445764
0.445889
0.446011
0.44613
0.446248
0.446363
0.446476
0.446586
0.446695
0.446802
0.446906
0.447009
0.44711
0.447209
0.447307
0.447403
0.447497
0.44759
0.447681
0.447772
0.447861
0.447948
0.448033
0.448115
0.448194
0.448271
0.44835
0.448436
0.448541
0.448677
0.448854
0.449075
0.449322
0.449562
0.449759
0.449891
0.449963
0.449991
0.449999
0.45
0.45
0.45
0.45
0.45
0.45
0.45
0.45
0.45
0.45
0.45
0.45
0.45
0.45
0.45
0.45
0.45
0.45
0.45
0.45
0.45
0.45
0.45
0.45
0.45
0.45
0.45
0.45
0.45
0.45
0.45
0.45
0.45
0.250541
0.250541
0.250541
0.250541
0.250541
0.250541
0.250541
0.250541
0.250541
0.250541
0.250541
0.250541
0.250541
0.250541
0.250541
0.250541
0.250541
0.250541
0.250541
0.250541
0.250541
0.250541
0.250541
0.250541
0.250541
0.250541
0.250541
0.250541
0.250541
0.250541
0.250541
0.250541
0.250541
0.250541
0.250541
0.250541
0.250541
0.250541
0.250541
0.250541
0.250541
0.250541
0.250541
0.250541
0.250541
0.250542
0.250545
0.250556
0.250629
0.2514
0.265045
0.368661
0.430423
0.435628
0.436137
0.436613
0.437084
0.437528
0.437945
0.438339
0.438713
0.439069
0.439407
0.43973
0.440039
0.440335
0.440619
0.440891
0.441153
0.441406
0.441649
0.441884
0.442111
0.442331
0.442543
0.442749
0.442949
0.443143
0.443331
0.443514
0.443692
0.443865
0.444033
0.444197
0.444357
0.444513
0.444666
0.444814
0.444959
0.445101
0.44524
0.445376
0.445508
0.445638
0.445765
0.44589
0.446012
0.446132
0.446249
0.446364
0.446477
0.446587
0.446696
0.446802
0.446907
0.44701
0.447111
0.44721
0.447308
0.447403
0.447498
0.44759
0.447682
0.447772
0.447861
0.447949
0.448034
0.448116
0.448194
0.448271
0.44835
0.448437
0.448542
0.448677
0.448855
0.449075
0.449322
0.449562
0.449759
0.449892
0.449963
0.449991
0.449999
0.45
0.45
0.45
0.45
0.45
0.45
0.45
0.45
0.45
0.45
0.45
0.45
0.45
0.45
0.45
0.45
0.45
0.45
0.45
0.45
0.45
0.45
0.45
0.45
0.45
0.45
0.45
0.45
0.45
0.45
0.45
0.45
0.45
0.250541
0.250541
0.250541
0.250541
0.250541
0.250541
0.250541
0.250541
0.250541
0.250541
0.250541
0.250541
0.250541
0.250541
0.250541
0.250541
0.250541
0.250541
0.250541
0.250541
0.250541
0.250541
0.250541
0.250541
0.250541
0.250541
0.250541
0.250541
0.250541
0.250541
0.250541
0.250541
0.250541
0.250541
0.250541
0.250541
0.250541
0.250541
0.250541
0.250541
0.250541
0.250541
0.250541
0.250541
0.250542
0.250543
0.250546
0.250564
0.250676
0.251897
0.273282
0.38451
0.432695
0.435659
0.436152
0.436633
0.437103
0.437545
0.437961
0.438354
0.438727
0.439081
0.439419
0.439741
0.440049
0.440344
0.440628
0.4409
0.441161
0.441413
0.441656
0.441891
0.442117
0.442337
0.442549
0.442754
0.442954
0.443147
0.443335
0.443518
0.443695
0.443868
0.444037
0.444201
0.44436
0.444516
0.444668
0.444817
0.444962
0.445104
0.445242
0.445378
0.445511
0.44564
0.445767
0.445892
0.446014
0.446133
0.44625
0.446365
0.446478
0.446589
0.446697
0.446804
0.446908
0.447011
0.447112
0.447211
0.447309
0.447404
0.447499
0.447591
0.447683
0.447773
0.447862
0.447949
0.448034
0.448116
0.448195
0.448272
0.44835
0.448437
0.448542
0.448678
0.448855
0.449075
0.449322
0.449562
0.449759
0.449892
0.449963
0.449991
0.449999
0.45
0.45
0.45
0.45
0.45
0.45
0.45
0.45
0.45
0.45
0.45
0.45
0.45
0.45
0.45
0.45
0.45
0.45
0.45
0.45
0.45
0.45
0.45
0.45
0.45
0.45
0.45
0.45
0.45
0.45
0.45
0.45
0.45
0.250541
0.250541
0.250541
0.250541
0.250541
0.250541
0.250541
0.250541
0.250541
0.250541
0.250541
0.250541
0.250541
0.250541
0.250541
0.250541
0.250541
0.250541
0.250541
0.250541
0.250541
0.250541
0.250541
0.250541
0.250541
0.250541
0.250541
0.250541
0.250541
0.250541
0.250541
0.250541
0.250541
0.250541
0.250541
0.250541
0.250541
0.250541
0.250541
0.250541
0.250541
0.250541
0.250541
0.250541
0.250542
0.250544
0.250549
0.250576
0.250753
0.2528
0.286748
0.399157
0.434074
0.435686
0.436172
0.436657
0.437126
0.437565
0.437979
0.438371
0.438743
0.439096
0.439433
0.439754
0.440061
0.440356
0.440638
0.44091
0.441171
0.441422
0.441665
0.441899
0.442125
0.442344
0.442556
0.442761
0.44296
0.443153
0.443341
0.443523
0.4437
0.443873
0.444041
0.444205
0.444365
0.44452
0.444672
0.444821
0.444966
0.445107
0.445246
0.445381
0.445513
0.445643
0.44577
0.445894
0.446016
0.446136
0.446253
0.446368
0.44648
0.446591
0.446699
0.446805
0.44691
0.447013
0.447114
0.447213
0.44731
0.447406
0.4475
0.447593
0.447684
0.447774
0.447863
0.44795
0.448035
0.448117
0.448196
0.448273
0.448351
0.448438
0.448543
0.448678
0.448856
0.449076
0.449323
0.449563
0.449759
0.449892
0.449963
0.449991
0.449999
0.45
0.45
0.45
0.45
0.45
0.45
0.45
0.45
0.45
0.45
0.45
0.45
0.45
0.45
0.45
0.45
0.45
0.45
0.45
0.45
0.45
0.45
0.45
0.45
0.45
0.45
0.45
0.45
0.45
0.45
0.45
0.45
0.45
0.250541
0.250541
0.250541
0.250541
0.250541
0.250541
0.250541
0.250541
0.250541
0.250541
0.250541
0.250541
0.250541
0.250541
0.250541
0.250541
0.250541
0.250541
0.250541
0.250541
0.250541
0.250541
0.250541
0.250541
0.250541
0.250541
0.250541
0.250541
0.250541
0.250541
0.250541
0.250541
0.250541
0.250541
0.250541
0.250541
0.250541
0.250541
0.250541
0.250541
0.250541
0.250541
0.250541
0.250542
0.250543
0.250545
0.250554
0.250596
0.250887
0.254493
0.30729
0.411989
0.434781
0.435713
0.436197
0.436685
0.437151
0.437588
0.438001
0.438391
0.438761
0.439113
0.439449
0.439769
0.440076
0.440369
0.440651
0.440921
0.441182
0.441433
0.441675
0.441908
0.442134
0.442352
0.442564
0.442769
0.442967
0.44316
0.443348
0.44353
0.443707
0.443879
0.444047
0.44421
0.44437
0.444525
0.444677
0.444825
0.44497
0.445111
0.44525
0.445385
0.445517
0.445647
0.445773
0.445898
0.446019
0.446139
0.446256
0.44637
0.446483
0.446593
0.446702
0.446808
0.446912
0.447015
0.447116
0.447215
0.447312
0.447408
0.447502
0.447594
0.447686
0.447776
0.447865
0.447952
0.448037
0.448119
0.448197
0.448274
0.448352
0.448439
0.448544
0.448679
0.448856
0.449077
0.449323
0.449563
0.449759
0.449892
0.449963
0.449991
0.449999
0.45
0.45
0.45
0.45
0.45
0.45
0.45
0.45
0.45
0.45
0.45
0.45
0.45
0.45
0.45
0.45
0.45
0.45
0.45
0.45
0.45
0.45
0.45
0.45
0.45
0.45
0.45
0.45
0.45
0.45
0.45
0.45
0.45
0.250541
0.250541
0.250541
0.250541
0.250541
0.250541
0.250541
0.250541
0.250541
0.250541
0.250541
0.250541
0.250541
0.250541
0.250541
0.250541
0.250541
0.250541
0.250541
0.250541
0.250541
0.250541
0.250541
0.250541
0.250541
0.250541
0.250541
0.250541
0.250541
0.250541
0.250541
0.250541
0.250541
0.250541
0.250541
0.250541
0.250541
0.250541
0.250541
0.250541
0.250541
0.250541
0.250542
0.250542
0.250543
0.250547
0.250561
0.250629
0.251129
0.257717
0.333901
0.421998
0.435095
0.435741
0.436228
0.436717
0.43718
0.437615
0.438025
0.438414
0.438782
0.439133
0.439467
0.439787
0.440092
0.440385
0.440665
0.440935
0.441195
0.441445
0.441686
0.441919
0.442145
0.442362
0.442573
0.442778
0.442976
0.443169
0.443356
0.443537
0.443714
0.443886
0.444054
0.444217
0.444376
0.444531
0.444683
0.444831
0.444975
0.445116
0.445255
0.44539
0.445522
0.445651
0.445778
0.445902
0.446023
0.446142
0.446259
0.446374
0.446486
0.446596
0.446705
0.446811
0.446915
0.447018
0.447118
0.447217
0.447315
0.44741
0.447504
0.447597
0.447688
0.447778
0.447867
0.447954
0.448039
0.44812
0.448199
0.448275
0.448354
0.44844
0.448545
0.448681
0.448858
0.449078
0.449324
0.449564
0.44976
0.449892
0.449963
0.449991
0.449999
0.45
0.45
0.45
0.45
0.45
0.45
0.45
0.45
0.45
0.45
0.45
0.45
0.45
0.45
0.45
0.45
0.45
0.45
0.45
0.45
0.45
0.45
0.45
0.45
0.45
0.45
0.45
0.45
0.45
0.45
0.45
0.45
0.45
0.250541
0.250541
0.250541
0.250541
0.250541
0.250541
0.250541
0.250541
0.250541
0.250541
0.250541
0.250541
0.250541
0.250541
0.250541
0.250541
0.250541
0.250541
0.250541
0.250541
0.250541
0.250541
0.250541
0.250541
0.250541
0.250541
0.250541
0.250541
0.250541
0.250541
0.250541
0.250541
0.250541
0.250541
0.250541
0.250541
0.250541
0.250541
0.250541
0.250541
0.250541
0.250541
0.250542
0.250543
0.250545
0.250551
0.250574
0.250687
0.251584
0.264139
0.361805
0.428731
0.435229
0.435772
0.436264
0.436752
0.437212
0.437644
0.438052
0.438439
0.438806
0.439155
0.439488
0.439806
0.44011
0.440402
0.440682
0.440951
0.44121
0.441459
0.4417
0.441932
0.442157
0.442374
0.442584
0.442788
0.442986
0.443178
0.443365
0.443546
0.443723
0.443894
0.444062
0.444224
0.444383
0.444538
0.44469
0.444837
0.444982
0.445123
0.44526
0.445395
0.445527
0.445656
0.445783
0.445907
0.446028
0.446147
0.446264
0.446378
0.44649
0.446601
0.446709
0.446815
0.446919
0.447021
0.447122
0.447221
0.447318
0.447413
0.447507
0.447599
0.447691
0.447781
0.447869
0.447956
0.448041
0.448122
0.448201
0.448277
0.448355
0.448442
0.448547
0.448682
0.448859
0.449079
0.449325
0.449565
0.44976
0.449892
0.449963
0.449991
0.449999
0.45
0.45
0.45
0.45
0.45
0.45
0.45
0.45
0.45
0.45
0.45
0.45
0.45
0.45
0.45
0.45
0.45
0.45
0.45
0.45
0.45
0.45
0.45
0.45
0.45
0.45
0.45
0.45
0.45
0.45
0.45
0.45
0.45
0.250541
0.250541
0.250541
0.250541
0.250541
0.250541
0.250541
0.250541
0.250541
0.250541
0.250541
0.250541
0.250541
0.250541
0.250541
0.250541
0.250541
0.250541
0.250541
0.250541
0.250541
0.250541
0.250541
0.250541
0.250541
0.250541
0.250541
0.250541
0.250541
0.250541
0.250541
0.250541
0.250541
0.250541
0.250541
0.250541
0.250541
0.250541
0.250541
0.250541
0.250541
0.250542
0.250542
0.250544
0.250547
0.250557
0.250594
0.250791
0.252497
0.276828
0.386818
0.432508
0.435296
0.435806
0.436305
0.436791
0.437247
0.437676
0.438082
0.438467
0.438832
0.43918
0.439511
0.439828
0.440131
0.440421
0.4407
0.440968
0.441226
0.441475
0.441715
0.441946
0.44217
0.442387
0.442597
0.4428
0.442998
0.443189
0.443375
0.443556
0.443732
0.443904
0.444071
0.444233
0.444392
0.444546
0.444697
0.444845
0.444989
0.44513
0.445267
0.445402
0.445534
0.445662
0.445789
0.445912
0.446034
0.446152
0.446269
0.446383
0.446495
0.446605
0.446713
0.446819
0.446923
0.447025
0.447126
0.447225
0.447322
0.447417
0.447511
0.447603
0.447694
0.447784
0.447872
0.447959
0.448044
0.448125
0.448203
0.44828
0.448358
0.448444
0.448549
0.448685
0.448861
0.449081
0.449327
0.449566
0.449761
0.449893
0.449963
0.449991
0.449999
0.45
0.45
0.45
0.45
0.45
0.45
0.45
0.45
0.45
0.45
0.45
0.45
0.45
0.45
0.45
0.45
0.45
0.45
0.45
0.45
0.45
0.45
0.45
0.45
0.45
0.45
0.45
0.45
0.45
0.45
0.45
0.45
0.45
0.250541
0.250541
0.250541
0.250541
0.250541
0.250541
0.250541
0.250541
0.250541
0.250541
0.250541
0.250541
0.250541
0.250541
0.250541
0.250541
0.250541
0.250541
0.250541
0.250541
0.250541
0.250541
0.250541
0.250541
0.250541
0.250541
0.250541
0.250541
0.250541
0.250541
0.250541
0.250541
0.250541
0.250541
0.250541
0.250541
0.250541
0.250541
0.250541
0.250541
0.250542
0.250542
0.250543
0.250545
0.25055
0.250566
0.250629
0.250986
0.254449
0.299917
0.407071
0.434164
0.435346
0.435846
0.43635
0.436832
0.437285
0.437711
0.438115
0.438497
0.438861
0.439206
0.439536
0.439852
0.440153
0.440443
0.44072
0.440987
0.441245
0.441492
0.441731
0.441962
0.442186
0.442402
0.442611
0.442814
0.443011
0.443202
0.443387
0.443568
0.443743
0.443914
0.444081
0.444243
0.444401
0.444556
0.444706
0.444853
0.444997
0.445138
0.445275
0.445409
0.445541
0.445669
0.445796
0.445919
0.44604
0.446159
0.446275
0.446389
0.446501
0.446611
0.446719
0.446824
0.446928
0.44703
0.447131
0.447229
0.447326
0.447421
0.447515
0.447607
0.447698
0.447788
0.447876
0.447963
0.448047
0.448128
0.448207
0.448283
0.448361
0.448447
0.448552
0.448687
0.448864
0.449084
0.449329
0.449567
0.449762
0.449893
0.449963
0.449991
0.449999
0.45
0.45
0.45
0.45
0.45
0.45
0.45
0.45
0.45
0.45
0.45
0.45
0.45
0.45
0.45
0.45
0.45
0.45
0.45
0.45
0.45
0.45
0.45
0.45
0.45
0.45
0.45
0.45
0.45
0.45
0.45
0.45
0.45
0.250541
0.250541
0.250541
0.250541
0.250541
0.250541
0.250541
0.250541
0.250541
0.250541
0.250541
0.250541
0.250541
0.250541
0.250541
0.250541
0.250541
0.250541
0.250541
0.250541
0.250541
0.250541
0.250541
0.250541
0.250541
0.250541
0.250541
0.250541
0.250541
0.250541
0.250541
0.250541
0.250541
0.250541
0.250541
0.250541
0.250541
0.250541
0.250541
0.250542
0.250542
0.250543
0.250544
0.250547
0.250556
0.250582
0.250691
0.251371
0.258759
0.33427
0.421553
0.43472
0.435392
0.435894
0.436399
0.436877
0.437325
0.437749
0.43815
0.43853
0.438891
0.439235
0.439563
0.439877
0.440178
0.440466
0.440742
0.441008
0.441264
0.441511
0.441749
0.44198
0.442202
0.442417
0.442626
0.442828
0.443025
0.443215
0.4434
0.44358
0.443755
0.443926
0.444092
0.444254
0.444412
0.444566
0.444716
0.444863
0.445006
0.445146
0.445284
0.445418
0.445549
0.445677
0.445803
0.445926
0.446047
0.446166
0.446282
0.446396
0.446507
0.446617
0.446725
0.44683
0.446934
0.447036
0.447136
0.447235
0.447331
0.447426
0.44752
0.447612
0.447702
0.447792
0.44788
0.447967
0.448051
0.448132
0.44821
0.448286
0.448364
0.448451
0.448555
0.448691
0.448867
0.449087
0.449332
0.449569
0.449763
0.449894
0.449963
0.449991
0.449999
0.45
0.45
0.45
0.45
0.45
0.45
0.45
0.45
0.45
0.45
0.45
0.45
0.45
0.45
0.45
0.45
0.45
0.45
0.45
0.45
0.45
0.45
0.45
0.45
0.45
0.45
0.45
0.45
0.45
0.45
0.45
0.45
0.45
0.250541
0.250541
0.250541
0.250541
0.250541
0.250541
0.250541
0.250541
0.250541
0.250541
0.250541
0.250541
0.250541
0.250541
0.250541
0.250541
0.250541
0.250541
0.250541
0.250541
0.250541
0.250541
0.250541
0.250541
0.250541
0.250541
0.250541
0.250541
0.250541
0.250541
0.250541
0.250541
0.250541
0.250541
0.250541
0.250541
0.250541
0.250541
0.250542
0.250542
0.250543
0.250544
0.250546
0.250551
0.250565
0.250609
0.250807
0.252193
0.268649
0.370089
0.42977
0.434896
0.43544
0.435949
0.436451
0.436924
0.437369
0.437789
0.438187
0.438564
0.438924
0.439266
0.439592
0.439904
0.440203
0.44049
0.440766
0.441031
0.441286
0.441532
0.441769
0.441998
0.44222
0.442435
0.442643
0.442844
0.44304
0.44323
0.443414
0.443594
0.443769
0.443939
0.444104
0.444266
0.444423
0.444577
0.444727
0.444873
0.445016
0.445156
0.445293
0.445427
0.445558
0.445686
0.445812
0.445935
0.446055
0.446174
0.446289
0.446403
0.446515
0.446624
0.446731
0.446837
0.446941
0.447042
0.447142
0.44724
0.447337
0.447432
0.447525
0.447617
0.447708
0.447797
0.447885
0.447972
0.448056
0.448137
0.448214
0.44829
0.448368
0.448454
0.448559
0.448694
0.448871
0.44909
0.449335
0.449572
0.449765
0.449895
0.449964
0.449991
0.449999
0.45
0.45
0.45
0.45
0.45
0.45
0.45
0.45
0.45
0.45
0.45
0.45
0.45
0.45
0.45
0.45
0.45
0.45
0.45
0.45
0.45
0.45
0.45
0.45
0.45
0.45
0.45
0.45
0.45
0.45
0.45
0.45
0.45
0.250541
0.250541
0.250541
0.250541
0.250541
0.250541
0.250541
0.250541
0.250541
0.250541
0.250541
0.250541
0.250541
0.250541
0.250541
0.250541
0.250541
0.250541
0.250541
0.250541
0.250541
0.250541
0.250541
0.250541
0.250541
0.250541
0.250541
0.250541
0.250541
0.250541
0.250541
0.250541
0.250541
0.250541
0.250541
0.250541
0.250541
0.250542
0.250542
0.250543
0.250544
0.250545
0.250549
0.250557
0.250579
0.250657
0.251036
0.254079
0.290356
0.39914
0.433282
0.434976
0.435493
0.436009
0.436507
0.436974
0.437415
0.437831
0.438226
0.438601
0.438958
0.439298
0.439623
0.439933
0.440231
0.440516
0.440791
0.441054
0.441308
0.441553
0.44179
0.442018
0.442239
0.442453
0.44266
0.442861
0.443056
0.443246
0.44343
0.443609
0.443783
0.443952
0.444118
0.444279
0.444436
0.444589
0.444738
0.444885
0.445027
0.445167
0.445303
0.445437
0.445568
0.445696
0.445821
0.445944
0.446064
0.446182
0.446298
0.446411
0.446523
0.446632
0.446739
0.446844
0.446948
0.447049
0.447149
0.447247
0.447343
0.447438
0.447531
0.447623
0.447713
0.447803
0.447891
0.447977
0.448061
0.448142
0.448219
0.448295
0.448373
0.448459
0.448564
0.448699
0.448876
0.449095
0.449339
0.449575
0.449767
0.449896
0.449964
0.449991
0.449999
0.45
0.45
0.45
0.45
0.45
0.45
0.45
0.45
0.45
0.45
0.45
0.45
0.45
0.45
0.45
0.45
0.45
0.45
0.45
0.45
0.45
0.45
0.45
0.45
0.45
0.45
0.45
0.45
0.45
0.45
0.45
0.45
0.45
0.250541
0.250541
0.250541
0.250541
0.250541
0.250541
0.250541
0.250541
0.250541
0.250541
0.250541
0.250541
0.250541
0.250541
0.250541
0.250541
0.250541
0.250541
0.250541
0.250541
0.250541
0.250541
0.250541
0.250541
0.250541
0.250541
0.250541
0.250541
0.250541
0.250541
0.250541
0.250541
0.250541
0.250541
0.250541
0.250542
0.250542
0.250542
0.250543
0.250543
0.250545
0.250548
0.250553
0.250566
0.250605
0.250746
0.25152
0.258708
0.328579
0.419218
0.434304
0.435041
0.435555
0.436073
0.436565
0.437027
0.437463
0.437876
0.438268
0.43864
0.438994
0.439332
0.439655
0.439964
0.44026
0.440544
0.440817
0.441079
0.441332
0.441576
0.441812
0.442039
0.442259
0.442472
0.442679
0.442879
0.443074
0.443262
0.443446
0.443624
0.443798
0.443967
0.444132
0.444292
0.444449
0.444602
0.444751
0.444897
0.445039
0.445178
0.445315
0.445448
0.445578
0.445706
0.445831
0.445953
0.446074
0.446191
0.446307
0.44642
0.446531
0.44664
0.446747
0.446852
0.446955
0.447057
0.447156
0.447254
0.44735
0.447445
0.447538
0.447629
0.44772
0.447809
0.447897
0.447983
0.448066
0.448147
0.448225
0.4483
0.448378
0.448464
0.448569
0.448704
0.448881
0.4491
0.449343
0.449578
0.449769
0.449897
0.449965
0.449992
0.449999
0.45
0.45
0.45
0.45
0.45
0.45
0.45
0.45
0.45
0.45
0.45
0.45
0.45
0.45
0.45
0.45
0.45
0.45
0.45
0.45
0.45
0.45
0.45
0.45
0.45
0.45
0.45
0.45
0.45
0.45
0.45
0.45
0.45
0.250541
0.250541
0.250541
0.250541
0.250541
0.250541
0.250541
0.250541
0.250541
0.250541
0.250541
0.250541
0.250541
0.250541
0.250541
0.250541
0.250541
0.250541
0.250541
0.250541
0.250541
0.250541
0.250541
0.250541
0.250541
0.250541
0.250541
0.250541
0.250541
0.250541
0.250541
0.250541
0.250541
0.250541
0.250542
0.250542
0.250542
0.250543
0.250543
0.250545
0.250547
0.250551
0.25056
0.250582
0.250649
0.250922
0.252641
0.270618
0.371477
0.42963
0.434551
0.435106
0.435627
0.436141
0.436626
0.437082
0.437514
0.437923
0.438311
0.43868
0.439032
0.439368
0.439689
0.439996
0.44029
0.440573
0.440844
0.441106
0.441357
0.4416
0.441835
0.442061
0.442281
0.442493
0.442699
0.442898
0.443092
0.44328
0.443463
0.443641
0.443814
0.443983
0.444147
0.444307
0.444463
0.444616
0.444764
0.44491
0.445052
0.445191
0.445326
0.445459
0.445589
0.445717
0.445842
0.445964
0.446084
0.446201
0.446316
0.446429
0.44654
0.446649
0.446756
0.446861
0.446964
0.447065
0.447164
0.447262
0.447358
0.447452
0.447545
0.447637
0.447727
0.447816
0.447903
0.447989
0.448073
0.448153
0.44823
0.448306
0.448383
0.448469
0.448574
0.44871
0.448887
0.449105
0.449348
0.449582
0.449772
0.449898
0.449965
0.449992
0.449999
0.45
0.45
0.45
0.45
0.45
0.45
0.45
0.45
0.45
0.45
0.45
0.45
0.45
0.45
0.45
0.45
0.45
0.45
0.45
0.45
0.45
0.45
0.45
0.45
0.45
0.45
0.45
0.45
0.45
0.45
0.45
0.45
0.45
0.250541
0.250541
0.250541
0.250541
0.250541
0.250541
0.250541
0.250541
0.250541
0.250541
0.250541
0.250541
0.250541
0.250541
0.250541
0.250541
0.250541
0.250541
0.250541
0.250541
0.250541
0.250541
0.250541
0.250541
0.250541
0.250541
0.250541
0.250541
0.250541
0.250541
0.250541
0.250541
0.250541
0.250542
0.250542
0.250542
0.250543
0.250543
0.250545
0.250547
0.25055
0.250556
0.250571
0.250609
0.250731
0.251294
0.255469
0.298925
0.404418
0.433292
0.434652
0.435177
0.435704
0.436212
0.43669
0.43714
0.437567
0.437971
0.438356
0.438722
0.439071
0.439405
0.439724
0.440029
0.440322
0.440603
0.440873
0.441133
0.441384
0.441625
0.441859
0.442085
0.442303
0.442514
0.442719
0.442918
0.443111
0.443299
0.443481
0.443658
0.443831
0.443999
0.444163
0.444322
0.444478
0.44463
0.444778
0.444923
0.445065
0.445204
0.445339
0.445472
0.445601
0.445729
0.445853
0.445975
0.446095
0.446212
0.446327
0.44644
0.44655
0.446659
0.446765
0.44687
0.446973
0.447074
0.447173
0.447271
0.447366
0.44746
0.447553
0.447644
0.447734
0.447823
0.44791
0.447996
0.44808
0.44816
0.448237
0.448312
0.448389
0.448476
0.448581
0.448716
0.448893
0.449112
0.449354
0.449586
0.449775
0.4499
0.449966
0.449992
0.449999
0.45
0.45
0.45
0.45
0.45
0.45
0.45
0.45
0.45
0.45
0.45
0.45
0.45
0.45
0.45
0.45
0.45
0.45
0.45
0.45
0.45
0.45
0.45
0.45
0.45
0.45
0.45
0.45
0.45
0.45
0.45
0.45
0.45
0.250541
0.250541
0.250541
0.250541
0.250541
0.250541
0.250541
0.250541
0.250541
0.250541
0.250541
0.250541
0.250541
0.250541
0.250541
0.250541
0.250541
0.250541
0.250541
0.250541
0.250541
0.250541
0.250541
0.250541
0.250541
0.250541
0.250541
0.250541
0.250541
0.250541
0.250541
0.250541
0.250542
0.250542
0.250542
0.250543
0.250544
0.250545
0.250546
0.250549
0.250554
0.250565
0.250589
0.250655
0.250895
0.252162
0.263251
0.3465
0.424141
0.434098
0.434734
0.435259
0.435787
0.436286
0.436756
0.4372
0.437622
0.438022
0.438403
0.438766
0.439112
0.439443
0.43976
0.440063
0.440354
0.440634
0.440903
0.441162
0.441411
0.441652
0.441884
0.442109
0.442326
0.442537
0.442741
0.442939
0.443131
0.443318
0.4435
0.443677
0.443848
0.444016
0.444179
0.444338
0.444494
0.444645
0.444793
0.444938
0.445079
0.445217
0.445352
0.445485
0.445614
0.445741
0.445865
0.445987
0.446106
0.446223
0.446338
0.44645
0.446561
0.446669
0.446775