/*--------------------------------*- C++ -*----------------------------------*\
  =========                 |
  \\      /  F ield         | OpenFOAM: The Open Source CFD Toolbox
   \\    /   O peration     | Website:  https://openfoam.org
    \\  /    A nd           | Version:  13
     \\/     M anipulation  |
\*---------------------------------------------------------------------------*/
FoamFile
{
    format      ascii;
    class       volScalarField;
    location    "0.0015";
    object      p;
}
// * * * * * * * * * * * * * * * * * * * * * * * * * * * * * * * * * * * * * //

dimensions      [1 -1 -2 0 0 0 0];

internalField   nonuniform List<scalar> 
33334
(
691342
691075
690671
690017
689055
687679
685853
684085
680611
675912
672911
668935
662419
657163
653589
648749
643127
639348
637266
634044
630110
627073
626364
628396
629845
625995
621455
618721
617101
616382
616033
615891
616029
616759
618339
620981
624959
630640
638333
648412
661319
677908
698949
725326
757542
796238
842487
898594
966543
1.05376e+06
1.16233e+06
1.10557e+06
636408
316803
255048
252037
250762
249372
247973
246657
245421
244243
243205
242240
241330
240471
239658
238888
238155
237457
236790
236152
235540
234952
234387
233843
233320
232816
232331
231863
231413
230977
230555
230146
229750
229366
228993
228632
228281
227941
227610
227287
226973
226667
226368
226077
225793
225517
225247
224984
224727
224476
224231
223991
223757
223528
223304
223085
222871
222661
222456
222255
222058
221866
221678
221493
221311
221134
220962
220786
220602
220459
220306
220154
220005
219876
219794
219790
219880
220002
219962
219657
218971
218244
218311
217588
217330
217072
216821
216563
216315
216065
215816
215576
215341
215111
214883
214660
214440
214224
214012
213804
213599
213399
213204
213011
212820
212632
212447
212269
212100
211939
211778
211614
211448
211286
691075
690838
690441
689831
688927
687667
686029
683452
680510
678300
673930
667944
664065
659999
654047
648784
645443
642041
637902
634665
633163
632484
630721
626698
621276
619249
619522
619379
618753
618143
617869
618020
618656
619954
622081
625240
629722
635857
643941
654324
667471
684125
705044
731093
762829
801272
847122
902557
971446
1.06052e+06
1.17028e+06
1.09665e+06
624814
312564
254231
251406
250155
248799
247451
246209
245081
244062
243050
242091
241190
240340
239536
238774
238050
237360
236702
236072
235469
234889
234332
233795
233279
232781
232302
231840
231393
230961
230542
230136
229741
229358
228986
228626
228275
227936
227605
227283
226970
226664
226366
226075
225792
225515
225245
224982
224726
224475
224230
223990
223756
223527
223304
223085
222870
222661
222455
222255
222058
221866
221678
221493
221311
221134
220961
220785
220603
220458
220307
220155
220007
219879
219797
219793
219882
220003
219961
219655
218969
218242
218310
217589
217330
217071
216821
216563
216315
216065
215816
215576
215341
215111
214883
214660
214440
214224
214012
213804
213599
213399
213204
213011
212820
212632
212447
212269
212100
211939
211779
211614
211448
211286
690671
690441
689976
689315
688343
687007
685194
682685
680369
677196
672604
668355
664342
659339
654059
649712
645968
642073
638421
635527
633272
631106
628187
624862
622512
621959
621563
620866
620036
619380
619046
619102
619561
620637
622510
625368
629513
635238
642849
652744
665436
681617
702030
727546
758876
796993
843846
900241
969742
1.0596e+06
1.17131e+06
1.07548e+06
604744
305551
253209
250700
249487
248169
246863
245655
244539
243488
242490
241553
240672
239841
239056
238314
237609
236938
236298
235687
235101
234540
234000
233481
232982
232501
232039
231593
231163
230746
230343
229952
229572
229203
228845
228497
228159
227831
227511
227199
226894
226597
226306
226022
225745
225474
225210
224951
224699
224452
224210
223973
223742
223515
223293
223076
222863
222654
222450
222250
222055
221863
221675
221491
221310
221133
220960
220784
220602
220457
220305
220153
220005
219877
219795
219791
219881
220003
219963
219656
218970
218243
218310
217589
217330
217071
216821
216563
216315
216065
215816
215576
215341
215111
214883
214660
214440
214224
214012
213804
213599
213400
213204
213011
212820
212632
212447
212269
212100
211939
211778
211614
211448
211286
690017
689831
689315
688660
687695
686362
684553
682281
679640
676020
671889
667924
663347
658112
653284
649096
645012
640993
637566
634871
632398
629495
626493
624225
623134
622610
621966
621084
620135
619378
618929
618916
619281
620263
622029
624730
628630
634008
641223
650722
663056
678862
698945
724170
755311
793324
839936
896785
967018
1.05854e+06
1.17126e+06
1.04253e+06
576292
296328
251823
249666
248486
247196
245921
244736
243635
242604
241639
240735
239885
239086
238331
237618
236941
236297
235684
235098
234537
233999
233483
232987
232509
232050
231608
231182
230771
230374
229989
229616
229254
228902
228561
228229
227906
227593
227287
226990
226699
226414
226137
225865
225599
225340
225086
224838
224595
224357
224124
223895
223671
223452
223236
223025
222817
222614
222414
222219
222027
221838
221654
221472
221293
221119
220948
220774
220594
220451
220300
220149
220001
219873
219793
219791
219881
220003
219963
219657
218971
218243
218310
217589
217330
217071
216821
216563
216315
216065
215816
215576
215341
215111
214883
214660
214440
214224
214012
213804
213599
213400
213204
213011
212820
212632
212447
212269
212100
211939
211779
211614
211448
211286
689055
688927
688343
687695
686730
685392
683604
681358
678454
674917
671104
666863
661954
656935
652348
647980
643661
639805
636598
633799
630927
628048
625757
624369
623593
622855
621906
620777
619676
618777
618191
618017
618209
618965
620465
622835
626375
631359
638195
647366
659446
675026
694985
720074
751145
789114
835496
892735
964316
1.05844e+06
1.17033e+06
999623
540934
286073
250154
248325
247167
245901
244657
243506
242440
241447
240519
239650
238835
238069
237347
236665
236018
235404
234819
234261
233727
233215
232724
232253
231800
231365
230947
230544
230155
229780
229417
229064
228723
228391
228069
227757
227453
227158
226871
226591
226318
226051
225790
225535
225285
225042
224803
224570
224342
224118
223899
223684
223473
223265
223062
222862
222666
222473
222284
222098
221915
221736
221560
221387
221216
221049
220885
220719
220546
220412
220265
220122
219980
219859
219783
219784
219877
220001
219963
219658
218972
218243
218311
217589
217330
217071
216821
216563
216315
216065
215816
215576
215341
215111
214884
214660
214440
214224
214012
213804
213599
213400
213204
213011
212820
212632
212447
212269
212100
211939
211779
211614
211448
211286
687679
687667
687007
686362
685392
684057
682283
679991
677059
673647
669787
665287
660404
655601
650962
646391
642106
638425
635247
632274
629415
627017
625321
624211
623287
622252
620995
619615
618327
617256
616495
616089
616064
616557
617782
619863
623135
627853
634465
643461
655398
670851
690717
715650
746644
784543
831089
888685
962556
1.05958e+06
1.17136e+06
943323
500879
275581
248269
246714
245580
244343
243142
242034
241010
240056
239166
238333
237553
236820
236130
235478
234861
234276
233720
233189
232682
232197
231732
231286
230858
230447
230053
229673
229308
228955
228614
228284
227964
227654
227353
227061
226778
226504
226237
225976
225722
225474
225232
224996
224765
224540
224319
224104
223893
223686
223484
223285
223090
222899
222711
222527
222346
222168
221993
221822
221654
221489
221327
221168
221011
220859
220711
220561
220404
220289
220156
220030
219906
219803
219744
219759
219863
219994
219960
219657
218972
218243
218311
217589
217330
217071
216822
216563
216315
216065
215816
215576
215342
215111
214884
214660
214440
214224
214012
213804
213599
213400
213204
213011
212820
212632
212447
212269
212100
211939
211779
211614
211448
211286
685853
686029
685194
684553
683604
682283
680501
678184
675297
671886
667886
663347
658589
653820
649062
644466
640327
636718
633482
630504
627922
625917
624429
623198
621925
620526
618982
617413
615968
614742
613796
613205
612980
613275
614313
616214
619327
623890
630372
639249
651033
666341
686007
710788
741695
779674
826605
885444
961511
1.06338e+06
1.16759e+06
881132
458060
265269
246221
244882
243770
242567
241411
240347
239364
238448
237594
236795
236048
235347
234688
234066
233478
232921
232392
231889
231408
230949
230509
230088
229684
229297
228926
228570
228228
227898
227579
227271
226973
226684
226405
226135
225873
225619
225372
225132
224899
224671
224448
224232
224020
223814
223612
223416
223223
223035
222851
222670
222493
222320
222150
221983
221819
221659
221503
221350
221200
221054
220912
220773
220638
220507
220382
220257
220123
220039
219930
219833
219739
219666
219637
219683
219815
219968
219949
219654
218971
218244
218312
217589
217330
217072
216822
216563
216315
216065
215816
215576
215342
215111
214884
214660
214440
214224
214012
213804
213599
213400
213204
213011
212820
212632
212447
212269
212100
211939
211779
211614
211448
211286
684085
683452
682685
682281
681358
679991
678184
675876
673009
669547
665492
661005
656294
651469
646675
642170
638131
634521
631276
628433
626077
624170
622540
620973
619363
617713
616023
614351
612807
611477
610411
609688
609329
609514
610440
612217
615203
619639
625983
634708
646282
661419
680853
705594
736444
774765
822486
882690
961959
1.06875e+06
1.16016e+06
810574
414452
256399
244048
242864
241772
240602
239489
238468
237523
236643
235824
235058
234343
233672
233042
232449
231889
231359
230856
230378
229922
229488
229072
228675
228294
227930
227582
227248
226928
226620
226323
226036
225759
225491
225233
224983
224741
224508
224281
224061
223848
223640
223437
223240
223047
222860
222678
222500
222326
222157
221991
221829
221671
221516
221365
221217
221073
220933
220797
220665
220538
220415
220298
220185
220076
219974
219878
219786
219682
219637
219565
219506
219453
219422
219435
219524
219698
219893
219909
219638
218967
218243
218312
217589
217331
217072
216822
216563
216315
216065
215816
215576
215342
215111
214884
214660
214440
214225
214012
213804
213599
213400
213204
213011
212820
212632
212447
212269
212100
211939
211779
211614
211448
211286
680611
680510
680369
679640
678454
677059
675297
673009
670123
666627
662585
658132
653403
648548
643799
639378
635367
631756
628565
625831
623510
621461
619554
617723
615943
614208
612479
610770
609177
607785
606637
605812
605360
605466
606298
607946
610782
615079
621248
629790
641136
656132
675419
700229
731217
770136
818819
881076
964190
1.07691e+06
1.1364e+06
741847
369052
249287
241765
240684
239608
238472
237403
236421
235513
234668
233881
233147
232462
231820
231218
230651
230117
229613
229135
228681
228249
227837
227444
227069
226710
226368
226041
225728
225428
225141
224864
224597
224340
224092
223853
223622
223400
223186
222978
222777
222582
222393
222209
222030
221856
221687
221523
221363
221208
221056
220909
220765
220626
220490
220358
220231
220108
219991
219878
219771
219669
219573
219485
219402
219326
219258
219198
219145
219082
219072
219051
219039
219036
219054
219118
219260
219490
219742
219812
219586
218947
218239
218312
217589
217331
217072
216822
216563
216315
216065
215816
215576
215342
215111
214884
214660
214440
214225
214012
213804
213599
213400
213204
213011
212820
212632
212447
212269
212100
211939
211779
211614
211448
211286
675912
678300
677196
676020
674917
673647
671886
669547
666627
663137
659119
654666
649918
645083
640392
636008
632001
628413
625272
622545
620125
617892
615814
613898
612102
610373
608645
606921
605292
603843
602612
601682
601140
601154
601865
603369
606041
610200
616186
624557
635726
650651
669940
694945
726226
766198
816016
881027
968639
1.087e+06
1.09432e+06
667132
328681
243759
239381
238368
237304
236203
235176
234233
233360
232548
231793
231089
230432
229818
229242
228701
228191
227710
227255
226824
226414
226023
225651
225297
224958
224635
224328
224034
223754
223485
223226
222978
222739
222509
222288
222075
221870
221673
221483
221300
221122
220949
220782
220620
220463
220311
220164
220021
219883
219749
219619
219494
219373
219257
219146
219040
218940
218846
218759
218679
218606
218542
218486
218438
218400
218370
218350
218343
218329
218353
218385
218425
218476
218550
218672
218874
219168
219489
219631
219474
218890
218217
218307
217589
217331
217072
216822
216563
216316
216065
215816
215576
215342
215111
214884
214660
214440
214225
214012
213804
213599
213400
213204
213011
212820
212632
212447
212269
212100
211939
211779
211614
211448
211286
672911
673930
672604
671889
671104
669787
667886
665492
662585
659119
655106
650644
645905
641108
636454
632087
628098
624545
621421
618648
616140
613835
611742
609861
608104
606391
604650
602890
601209
599686
598357
597322
596696
596603
597174
598543
601071
605110
610944
619195
630286
645225
664670
690013
721876
763016
814664
882828
975608
1.09883e+06
1.02518e+06
586780
295217
239455
236908
235937
234885
233820
232835
231930
231091
230311
229585
228910
228280
227692
227140
226623
226136
225677
225244
224833
224443
224072
223719
223383
223063
222759
222469
222193
221929
221677
221436
221204
220981
220767
220562
220366
220177
219995
219821
219653
219490
219333
219182
219035
218893
218756
218624
218497
218375
218257
218145
218037
217935
217839
217749
217666
217590
217522
217463
217413
217372
217341
217322
217312
217314
217328
217351
217393
217429
217491
217575
217668
217776
217908
218090
218357
218721
219118
219344
219272
218769
218157
218287
217586
217329
217072
216822
216563
216316
216066
215816
215576
215342
215111
214884
214660
214440
214225
214012
213804
213600
213400
213204
213011
212820
212632
212447
212269
212100
211939
211779
211614
211448
211286
668935
667944
668355
667924
666863
665287
663347
661005
658132
654666
650644
646188
641477
636716
632091
627757
623813
620300
617188
614401
611891
609619
607585
605759
604027
602293
600504
598683
596935
595330
593909
592786
592075
591875
592315
593579
596007
599956
605691
613890
625016
640062
659814
685636
718431
760748
814859
887060
986512
1.1091e+06
929397
504796
269246
235963
234361
233412
232373
231347
230403
229534
228727
227978
227281
226633
226029
225464
224936
224441
223976
223537
223123
222731
222360
222007
221672
221353
221050
220762
220488
220228
219980
219743
219516
219299
219091
218892
218701
218519
218344
218177
218016
217862
217713
217569
217431
217298
217169
217046
216929
216816
216709
216607
216511
216422
216339
216263
216196
216137
216087
216047
216017
215999
215993
215998
216018
216049
216093
216151
216219
216308
216398
216500
216634
216780
216942
217132
217375
217707
218142
218619
218934
218961
218559
218030
218232
217572
217322
217069
216822
216563
216316
216066
215816
215576
215342
215111
214884
214660
214440
214225
214012
213804
213600
213400
213204
213011
212820
212632
212447
212269
212100
211939
211779
211614
211448
211286
662419
664065
664342
663347
661954
660404
658589
656294
653403
649918
645905
641477
636801
632076
627498
623227
619355
615898
612828
610083
607630
605426
603452
601650
599894
598097
596229
594338
592526
590853
589361
588165
587375
587077
587414
588611
590975
594855
600555
608765
620019
635298
655549
682017
716135
759875
816996
894080
1.00251e+06
1.11171e+06
820798
428239
250153
232923
231752
230810
229789
228803
227899
227065
226290
225570
224900
224278
223698
223156
222650
222176
221730
221311
220915
220541
220187
219851
219531
219228
218940
218667
218407
218161
217927
217704
217491
217287
217092
216906
216728
216558
216396
216240
216092
215949
215812
215681
215554
215433
215317
215207
215103
215004
214911
214825
214747
214675
214612
214559
214515
214481
214459
214448
214451
214467
214496
214540
214598
214671
214759
214861
214974
215109
215249
215395
215575
215772
215987
216232
216533
216927
217431
217987
218393
218524
218239
217808
218114
217536
217299
217060
216820
216564
216317
216066
215817
215576
215342
215111
214884
214660
214440
214225
214012
213804
213600
213400
213204
213011
212820
212632
212447
212269
212100
211939
211779
211614
211448
211286
657163
659999
659339
658112
656935
655601
653820
651469
648548
645083
641108
636716
632076
627403
622902
618722
614940
611556
608549
605864
603473
601322
599376
597556
595737
593849
591900
589956
588105
586385
584835
583568
582690
582310
582582
583737
586054
589888
595614
603909
615383
631064
652020
679371
715097
760787
821582
904639
1.02256e+06
1.08909e+06
714983
358057
237927
230079
229092
228149
227151
226206
225341
224540
223795
223103
222460
221862
221305
220785
220300
219845
219418
219016
218638
218280
217941
217620
217316
217027
216753
216493
216247
216013
215792
215581
215380
215188
215005
214830
214663
214504
214352
214208
214070
213938
213812
213690
213575
213465
213360
213262
213170
213085
213007
212938
212876
212824
212783
212752
212733
212726
212733
212754
212790
212841
212907
212989
213088
213201
213332
213478
213634
213813
214002
214191
214415
214659
214923
215219
215574
216026
216595
217224
217718
217955
217796
217470
217895
217462
217248
217036
216811
216562
216317
216067
215817
215576
215342
215111
214884
214660
214440
214225
214012
213804
213600
213400
213204
213011
212820
212632
212447
212269
212100
211939
211779
211614
211448
211286
653589
654047
654059
653284
652348
650962
649062
646675
643799
640392
636454
632091
627498
622902
618501
614426
610741
607432
604488
601854
599508
597389
595442
593569
591655
589667
587653
585678
583799
582031
580409
579055
578080
577637
577884
579006
581293
585113
590918
599368
611187
627422
649335
677835
715505
763922
829565
919589
1.04493e+06
1.0236e+06
609009
301363
230729
227296
226389
225442
224474
223571
222742
221973
221258
220593
219975
219400
218865
218366
217900
217464
217054
216669
216306
215964
215640
215333
215042
214766
214505
214257
214023
213801
213591
213391
213201
213019
212846
212681
212524
212375
212233
212098
211969
211847
211730
211618
211512
211412
211319
211233
211153
211082
211020
210967
210925
210893
210874
210868
210875
210897
210935
210988
211057
211144
211248
211368
211506
211659
211831
212019
212218
212437
212670
212903
213166
213454
213763
214106
214510
215015
215642
216338
216914
217250
217224
217003
217536
217328
217151
216981
216786
216554
216316
216067
215818
215577
215342
215111
214884
214660
214440
214225
214012
213804
213600
213400
213204
213011
212820
212632
212447
212269
212100
211939
211779
211614
211448
211286
648749
648784
649712
649096
647980
646391
644466
642170
639378
636008
632087
627757
623227
618722
614426
610449
606842
603587
600683
598084
595767
593662
591690
589734
587716
585641
583584
581586
579666
577825
576110
574660
573598
573123
573366
574463
576739
580589
586522
595244
607543
624590
647548
677649
717491
769386
840832
940055
1.06626e+06
908857
499782
262222
226221
224524
223648
222702
221769
220908
220114
219376
218690
218051
217457
216905
216391
215911
215464
215045
214651
214282
213934
213606
213295
213001
212723
212459
212209
211973
211749
211538
211338
211148
210968
210796
210632
210476
210328
210187
210054
209927
209807
209692
209584
209481
209385
209295
209213
209138
209072
209016
208970
208935
208913
208903
208908
208927
208963
209015
209083
209170
209274
209396
209536
209694
209870
210062
210273
210500
210739
210997
211270
211542
211842
212169
212519
212904
213353
213904
214583
215340
215989
216414
216524
216411
217003
217109
216989
216881
216729
216529
216308
216067
215819
215578
215343
215111
214884
214660
214440
214225
214012
213804
213600
213400
213204
213011
212820
212632
212447
212269
212100
211939
211779
211614
211448
211286
643127
645443
645968
645012
643661
642106
640327
638131
635367
632001
628098
623813
619355
614940
610741
606842
603295
600075
597200
594628
592330
590213
588182
586112
583982
581831
579738
577704
575709
573763
571939
570403
569288
568813
569071
570158
572445
576372
582508
591622
604651
622623
646996
679188
721538
778151
855924
965822
1.07445e+06
772316
401754
237698
222870
221754
220876
219941
219050
218229
217468
216760
216101
215488
214917
214386
213892
213432
213001
212599
212221
211866
211532
211217
210919
210638
210371
210118
209879
209653
209439
209238
209047
208866
208694
208531
208375
208227
208087
207954
207828
207709
207596
207489
207389
207295
207208
207129
207057
206996
206944
206904
206875
206860
206859
206873
206903
206950
207014
207096
207197
207317
207455
207612
207788
207982
208194
208423
208670
208934
209211
209504
209813
210121
210455
210817
211203
211626
212113
212706
213431
214240
214955
215455
215696
215706
216292
216745
216756
216720
216626
216473
216284
216060
215818
215579
215344
215112
214884
214660
214440
214225
214012
213804
213600
213400
213204
213011
212820
212632
212447
212269
212100
211939
211779
211614
211448
211286
639348
642041
642073
640993
639805
638425
636718
634521
631756
628413
624545
620300
615898
611556
607432
603587
600075
596880
594030
591485
589189
587028
584898
582699
580464
578243
576099
573997
571895
569832
567914
566325
565203
564757
565029
566115
568426
572483
578963
588653
602638
621872
647952
682355
728358
790037
876205
997893
1.02977e+06
644438
318193
225114
219906
218975
218083
217171
216322
215540
214812
214133
213500
212911
212363
211853
211378
210935
210522
210135
209772
209431
209110
208808
208522
208251
207995
207753
207524
207307
207103
206910
206727
206555
206391
206235
206087
205946
205813
205687
205567
205455
205349
205250
205158
205073
204995
204927
204868
204820
204784
204760
204751
204757
204779
204818
204875
204950
205044
205157
205290
205442
205614
205805
206015
206244
206490
206754
207034
207331
207642
207968
208311
208650
209014
209407
209826
210281
210802
211432
212196
213050
213824
214384
214740
214902
215443
216126
216452
216497
216464
216371
216229
216036
215811
215579
215345
215114
214885
214661
214441
214225
214012
213804
213600
213400
213204
213011
212820
212632
212447
212269
212100
211939
211779
211614
211448
211286
637266
637902
638421
637566
636598
635247
633482
631276
628565
625272
621421
617188
612828
608549
604488
600683
597200
594030
591201
588657
586315
584061
581791
579456
577121
574827
572605
570409
568192
566027
564046
562428
561318
560902
561167
562255
564635
568952
575993
586432
601706
622311
650619
687936
737986
806261
902754
1.03019e+06
913154
513006
262341
219082
217046
216180
215276
214399
213594
212849
212152
211501
210894
210329
209802
209312
208856
208430
208033
207660
207312
206984
206675
206385
206110
205850
205604
205371
205151
204944
204748
204563
204388
204223
204066
203917
203776
203642
203515
203395
203282
203176
203077
202986
202902
202826
202759
202702
202656
202623
202604
202600
202611
202640
202686
202751
202835
202939
203063
203208
203372
203557
203761
203985
204227
204488
204766
205062
205372
205701
206043
206398
206770
207138
207529
207948
208396
208880
209431
210092
210891
211782
212606
213215
213663
213995
214516
215282
215968
216193
216237
216212
216129
215983
215786
215571
215345
215115
214887
214662
214441
214225
214012
213804
213600
213400
213204
213011
212820
212632
212447
212269
212100
211939
211779
211614
211448
211286
634044
634665
635527
634871
633799
632274
630504
628433
625831
622545
618648
614401
610083
605864
601854
598084
594628
591485
588657
586076
583640
581241
578810
576349
573918
571537
569215
566910
564586
562343
560322
558683
557582
557182
557424
558562
561143
565888
573746
585199
601844
624458
654995
696331
751066
827824
936263
1.04568e+06
755987
394245
230703
215434
214226
213367
212469
211633
210870
210161
209495
208871
208289
207746
207241
206770
206331
205922
205540
205182
204846
204531
204234
203955
203690
203441
203204
202981
202769
202569
202381
202204
202036
201878
201728
201585
201450
201322
201200
201087
200980
200881
200789
200705
200630
200564
200508
200465
200434
200417
200416
200432
200466
200518
200590
200682
200794
200928
201082
201257
201452
201668
201903
202158
202431
202721
203030
203354
203693
204049
204419
204801
205199
205593
206006
206450
206922
207431
208008
208697
209524
210446
211312
211961
212476
212983
213536
214325
215227
215722
215926
215987
215974
215888
215733
215547
215338
215115
214889
214664
214442
214225
214013
213804
213600
213400
213204
213011
212821
212632
212447
212269
212100
211939
211779
211614
211448
211286
630110
633163
633272
632398
630927
629415
627922
626077
623510
620125
616140
611891
607630
603473
599508
595767
592330
589189
586315
583640
581052
578481
575903
573334
570815
568337
565904
563486
561067
558766
556724
555075
553978
553579
553817
555114
558075
563525
572333
585138
603315
628340
661865
707651
768806
855625
976991
990235
607289
299058
216900
212437
211417
210544
209668
208878
208156
207481
206844
206247
205689
205168
204683
204231
203809
203416
203048
202704
202381
202078
201792
201523
201269
201028
200801
200586
200382
200190
200009
199839
199678
199526
199382
199245
199115
198993
198877
198769
198668
198576
198492
198416
198351
198296
198253
198224
198209
198211
198230
198267
198324
198402
198500
198620
198760
198923
199107
199311
199537
199782
200047
200330
200631
200950
201285
201637
202001
202382
202776
203182
203603
204021
204454
204919
205412
205943
206543
207255
208106
209054
209952
210639
211203
211864
212496
213299
214299
215024
215466
215674
215751
215738
215640
215494
215314
215109
214889
214666
214445
214227
214013
213804
213600
213400
213204
213011
212821
212632
212447
212269
212100
211939
211779
211614
211448
211286
627073
632484
631106
629495
628048
627017
625917
624170
621461
617892
613835
609619
605426
601322
597389
593662
590213
587028
584061
581241
578481
575751
573056
570397
567789
565205
562655
560122
557618
555272
553210
551563
550485
550113
550441
552063
555685
562055
572068
586394
606506
634351
671662
722632
792135
891240
1.01443e+06
840410
458979
242355
211296
209580
208600
207720
206884
206140
205456
204812
204204
203633
203098
202599
202134
201699
201294
200916
200562
200231
199920
199628
199354
199094
198850
198618
198399
198192
197996
197811
197637
197473
197318
197172
197034
196902
196778
196660
196550
196448
196354
196268
196192
196126
196072
196029
196000
195987
195990
196011
196051
196112
196194
196297
196422
196570
196739
196930
197143
197376
197630
197903
198196
198506
198834
199177
199537
199913
200301
200704
201121
201547
201989
202427
202879
203362
203874
204424
205043
205776
206647
207617
208539
209266
209854
210656
211362
212209
213267
214129
214797
215217
215440
215523
215496
215400
215261
215085
214883
214666
214447
214229
214015
213805
213600
213400
213204
213011
212820
212632
212447
212269
212100
211939
211779
211614
211448
211286
626364
630721
628187
626493
625757
625321
624429
622540
619554
615814
611742
607585
603452
599376
595442
591690
588182
584898
581791
578810
575903
573056
570272
567526
564819
562122
559451
556794
554197
551789
549694
548068
547072
546809
547436
549624
554118
561657
573040
589245
611743
643030
685152
742351
821827
936320
1.00817e+06
665255
334219
216099
207967
206761
205774
204908
204120
203419
202771
202159
201579
201032
200521
200042
199595
199178
198789
198425
198085
197766
197468
197187
196922
196672
196437
196214
196003
195803
195614
195436
195268
195110
194961
194820
194687
194561
194442
194329
194225
194129
194041
193964
193897
193841
193798
193770
193756
193760
193783
193825
193888
193973
194080
194210
194362
194537
194734
194953
195194
195454
195735
196035
196353
196688
197040
197407
197790
198188
198597
199020
199457
199902
200362
200818
201286
201785
202314
202880
203517
204267
205156
206145
207087
207853
208448
209361
210118
211053
212167
213111
213931
214564
214985
215222
215291
215255
215168
215034
214860
214661
214448
214231
214017
213806
213601
213400
213204
213011
212820
212632
212447
212269
212100
211939
211779
211614
211448
211286
628396
626698
624862
624225
624369
624211
623198
620973
617723
613898
609861
605759
601650
597556
593569
589734
586112
582699
579456
576349
573334
570397
567526
564682
561863
559050
556256
553480
550797
548336
546222
544690
543930
543936
545030
547921
553455
562325
575491
594108
619693
655064
702945
768186
859959
984499
880786
498781
252036
207375
205065
203944
202949
202118
201379
200720
200105
199523
198970
198448
197958
197500
197071
196671
196297
195947
195620
195314
195026
194755
194501
194260
194033
193818
193615
193422
193240
193068
192906
192754
192610
192475
192346
192225
192111
192004
191905
191816
191736
191667
191610
191566
191537
191523
191527
191550
191593
191658
191744
191854
191987
192143
192323
192525
192749
192995
193262
193549
193855
194179
194521
194880
195254
195643
196046
196463
196892
197334
197788
198250
198726
199199
199680
200194
200737
201319
201971
202736
203642
204646
205603
206398
207000
207977
208788
209821
210998
212007
212926
213721
214339
214773
215002
215053
215026
214942
214809
214638
214442
214232
214020
213809
213602
213401
213204
213011
212820
212632
212447
212269
212100
211939
211779
211614
211448
211286
629845
621276
622512
623134
623593
623287
621925
619363
615943
612102
608104
604027
599894
595737
591655
587716
583982
580464
577121
573918
570815
567789
564819
561863
558927
556004
553108
550245
547512
545030
542953
541583
541107
541503
543248
547107
553865
564413
579829
601372
630833
671182
726167
801396
909076
1.00109e+06
687185
352238
214548
203617
202247
201117
200139
199355
198664
198043
197461
196908
196381
195883
195414
194975
194564
194180
193820
193484
193170
192875
192598
192337
192092
191860
191641
191434
191238
191052
190876
190710
190554
190407
190268
190138
190014
189898
189789
189688
189595
189513
189441
189382
189337
189306
189292
189295
189317
189360
189425
189513
189624
189760
189919
190101
190307
190536
190786
191058
191350
191662
191991
192339
192703
193082
193477
193886
194308
194744
195190
195648
196119
196596
197087
197574
198068
198594
199151
199745
200411
201190
202110
203124
204093
204895
205523
206531
207387
208506
209752
210828
211824
212733
213510
214130
214564
214774
214827
214804
214719
214588
214420
214227
214021
213812
213605
213403
213205
213011
212820
212632
212447
212269
212100
211939
211779
211614
211448
211286
625995
619249
621959
622610
622855
622252
620526
617713
614208
610373
606391