/*--------------------------------*- C++ -*----------------------------------*\
  =========                 |
  \\      /  F ield         | OpenFOAM: The Open Source CFD Toolbox
   \\    /   O peration     | Website:  https://openfoam.org
    \\  /    A nd           | Version:  13
     \\/     M anipulation  |
\*---------------------------------------------------------------------------*/
FoamFile
{
    format      ascii;
    class       surfaceScalarField;
    location    "0.0015";
    object      phi;
}
// * * * * * * * * * * * * * * * * * * * * * * * * * * * * * * * * * * * * * //

dimensions      [1 0 -1 0 0 0 0];

internalField   nonuniform List<scalar> 
66301
(
0.033981
0.033981
0.0678254
0.0337422
0.10092
0.0339968
0.133229
0.0339206
0.164437
0.0338414
0.194082
0.033809
0.221778
0.0343824
0.248834
0.0326205
0.270911
0.0294175
0.289133
0.0363209
0.30877
0.0370085
0.323629
0.0313374
0.331632
0.0342446
0.342624
0.0345507
0.353385
0.0338462
0.358336
0.031981
0.361779
0.0327679
0.369019
0.0327416
0.375196
0.0331959
0.376027
0.0326406
0.376907
0.031724
0.381821
0.0312913
0.392231
0.0337724
0.403825
0.0363904
0.409898
0.0236303
0.405731
0.0206113
0.404557
0.0272323
0.407044
0.0262431
0.412925
0.0260756
0.419421
0.0262456
0.426163
0.0262759
0.433605
0.0263075
0.442591
0.026254
0.453783
0.0260965
0.467528
0.025912
0.484381
0.0256402
0.505015
0.0253676
0.530457
0.0252098
0.561949
0.0252047
0.601033
0.0253778
0.649186
0.0259058
0.708527
0.0262503
0.780953
0.0268891
0.869033
0.0278959
0.976164
0.0287056
1.10548
0.0291788
1.25863
0.0301108
1.44166
0.0325749
1.67056
0.0346834
1.98049
0.0378155
2.38875
0.0441222
2.56673
0.0510844
1.60677
0.0200692
0.513612
0.00559414
0.456452
0.00197593
0.452775
0.00167045
0.449279
0.00148039
0.444662
0.00126403
0.440255
0.00103384
0.436334
0.000774372
0.432739
0.0005019
0.429332
0.00141679
0.426337
0.00137706
0.42353
0.001269
0.420882
0.00116576
0.418389
0.00106689
0.416032
0.000972818
0.413799
0.000881813
0.41168
0.000796283
0.409667
0.000716874
0.407749
0.000643418
0.405918
0.00057584
0.404169
0.000513913
0.402494
0.000457927
0.400888
0.000407357
0.399346
0.00036262
0.397862
0.00032271
0.396431
0.00028824
0.395049
0.000257835
0.393712
0.00023218
0.39242
0.000209972
0.39117
0.000191132
0.389959
0.000175281
0.388785
0.000161343
0.387645
0.000148896
0.386537
0.000134646
0.38546
0.000117376
0.384411
0.000101803
0.38339
8.8261e-05
0.382395
7.62043e-05
0.381425
6.55225e-05
0.38048
5.64584e-05
0.379559
4.83563e-05
0.378661
4.14258e-05
0.377783
3.54933e-05
0.376926
3.04736e-05
0.376087
2.60473e-05
0.375267
2.23863e-05
0.374463
1.94033e-05
0.373675
1.67777e-05
0.372903
1.45794e-05
0.372146
1.28175e-05
0.371403
1.14078e-05
0.370674
1.01829e-05
0.369959
9.17173e-06
0.369257
8.3662e-06
0.368566
7.71511e-06
0.367887
7.06969e-06
0.367219
6.50679e-06
0.366562
6.15096e-06
0.365916
5.94373e-06
0.365283
5.75238e-06
0.364664
5.50554e-06
0.364057
5.17144e-06
0.363458
4.95026e-06
0.362861
5.31773e-06
0.362252
5.80309e-06
0.361626
5.15907e-06
0.361015
2.8659e-06
0.360475
-1.30545e-06
0.359987
-5.99645e-06
0.35994
-7.71755e-06
0.360574
-1.38702e-05
0.362684
-2.2813e-05
0.367612
-3.21069e-05
0.377472
-3.88429e-05
0.395325
-4.14641e-05
0.425201
-3.96143e-05
0.471659
-3.62101e-05
0.537903
-3.54493e-05
0.62129
-3.15482e-05
0.708471
-1.71554e-05
0.776635
1.69382e-06
0.815082
1.90533e-05
0.826685
9.81001e-06
0.826965
1.50282e-06
0.82515
1.16016e-06
0.82285
-1.92539e-06
0.82026
-5.23116e-06
0.817648
-7.73402e-06
0.815252
-8.84159e-06
0.813029
-8.93129e-06
0.810978
-8.546e-06
0.809151
-8.07416e-06
0.807482
-7.6713e-06
0.805874
-7.36743e-06
0.804249
-7.1635e-06
0.802582
-7.02695e-06
0.800885
-6.92618e-06
0.799188
-6.84724e-06
0.797518
-6.7854e-06
0.795891
-6.73557e-06
0.794312
-6.6908e-06
0.792778
-6.63898e-06
0.791281
-6.59755e-06
0.789811
-6.58447e-06
0.788358
-6.57277e-06
0.786913
-6.55605e-06
0.785464
-6.53358e-06
0.784005
-6.50565e-06
0.782544
-6.47447e-06
0.781106
-6.44621e-06
0.779725
-6.42751e-06
0.77842
-6.40034e-06
0.777189
-6.36116e-06
-6.35691e-06
0.0337422
0.0678254
0.0673445
0.0673445
0.100232
0.0678176
0.132333
0.067656
0.163358
0.0674694
0.19304
0.0672924
0.221048
0.0670689
0.246149
0.0649053
0.270217
0.0661168
0.29377
0.0675947
0.310965
0.0656513
0.324033
0.0651134
0.340228
0.0671386
0.35197
0.0661089
0.3585
0.0648156
0.366391
0.0643391
0.37638
0.0648259
0.382486
0.0643958
0.386653
0.063838
0.393175
0.063021
0.401658
0.0627668
0.4085
0.0622262
0.409794
0.0611278
0.409194
0.057569
0.406744
0.0525916
0.413389
0.0545046
0.423764
0.0556456
0.430826
0.0558948
0.436152
0.0559809
0.441635
0.0556986
0.448241
0.0554848
0.456427
0.0552019
0.466485
0.0548832
0.478529
0.054571
0.492765
0.0541999
0.509787
0.0537596
0.530399
0.0533929
0.555576
0.0529542
0.586498
0.0526302
0.624605
0.0524466
0.671494
0.0525574
0.729135
0.0522003
0.799553
0.0521128
0.885464
0.0522432
0.989578
0.0523086
1.11581
0.051484
1.26924
0.0533311
1.45835
0.0566839
1.69781
0.0595971
2.01841
0.0668362
2.42106
0.0804477
2.57109
0.078364
1.56218
0.0493268
0.507598
0.0112363
0.455507
0.00458287
0.451897
0.00414304
0.448418
0.00389013
0.443899
0.00363118
0.43963
0.00339575
0.435921
0.00322449
0.432575
0.00313481
0.429529
0.00320324
0.426503
0.00299295
0.423687
0.002774
0.421058
0.00256844
0.418579
0.00237624
0.416234
0.00219279
0.414012
0.00201871
0.411907
0.0018548
0.409904
0.00170157
0.407994
0.00155717
0.406171
0.00142242
0.404428
0.00129537
0.402758
0.00117769
0.401157
0.0010672
0.399618
0.000965083
0.398136
0.000870274
0.396706
0.00078241
0.395325
0.000701678
0.393989
0.000627143
0.392697
0.000558495
0.391448
0.000495916
0.390238
0.000437577
0.389067
0.00038454
0.387933
0.000334797
0.386831
0.000290632
0.385761
0.000255906
0.384718
0.000224266
0.383703
0.000196236
0.382714
0.000170979
0.381751
0.000148301
0.380812
0.00012859
0.379896
0.000110826
0.379003
9.52954e-05
0.378132
8.17367e-05
0.37728
7.00237e-05
0.376446
5.96142e-05
0.375631
5.07472e-05
0.374832
4.33064e-05
0.374049
3.67757e-05
0.373282
3.11844e-05
0.37253
2.65367e-05
0.371792
2.27282e-05
0.371068
1.94627e-05
0.370357
1.66945e-05
0.369659
1.4432e-05
0.368973
1.26186e-05
0.368299
1.1035e-05
0.367635
9.68187e-06
0.366982
8.66131e-06
0.366341
7.92256e-06
0.365712
7.30399e-06
0.365098
6.69089e-06
0.364495
6.05848e-06
0.363901
5.60946e-06
0.363309
5.80017e-06
0.362706
6.1945e-06
0.362086
5.48112e-06
0.361478
3.04646e-06
0.360936
-1.29343e-06
0.360442
-4.61392e-06
0.360387
-6.68852e-06
0.361004
-1.20021e-05
0.363087
-1.93143e-05
0.367975
-2.64869e-05
0.377782
-3.10844e-05
0.395574
-3.17095e-05
0.425389
-2.91461e-05
0.471793
-2.80583e-05
0.537994
-3.228e-05
0.621353
-3.69751e-05
0.708548
-4.33577e-05
0.776761
-3.01114e-05
0.815267
-1.31388e-05
0.826925
-1.23823e-05
0.827212
-6.23563e-06
0.825403
-6.30274e-06
0.823107
-6.60703e-06
0.820515
-7.64179e-06
0.817896
-8.35412e-06
0.81549
-8.56621e-06
0.813257
-8.46989e-06
0.811198
-8.05315e-06
0.809362
-7.66956e-06
0.807685
-7.36859e-06
0.806069
-7.13063e-06
0.804437
-6.94631e-06
0.802762
-6.79095e-06
0.801058
-6.6572e-06
0.799354
-6.53806e-06
0.797677
-6.44193e-06
0.796043
-6.36453e-06
0.794457
-6.29804e-06
0.792916
-6.2321e-06
0.791411
-6.2341e-06
0.789934
-6.18649e-06
0.788475
-6.14404e-06
0.787022
-6.10607e-06
0.785566
-6.06807e-06
0.7841
-6.02758e-06
0.782632
-5.98537e-06
0.781187
-5.9464e-06
0.779799
-5.91678e-06
0.778487
-5.88109e-06
0.777249
-5.8515e-06
-5.87746e-06
0.0339968
0.10092
0.0678176
0.100232
0.100925
0.100925
0.133175
0.10075
0.164264
0.100539
0.193908
0.100252
0.221641
0.0997249
0.246334
0.0990251
0.270002
0.0994489
0.290429
0.098201
0.306252
0.0968566
0.321703
0.0980021
0.33568
0.0979558
0.345405
0.0963098
0.35325
0.0956369
0.361749
0.0955926
0.369296
0.095029
0.374895
0.0940765
0.380133
0.093177
0.386233
0.0925977
0.392317
0.0920327
0.396453
0.0902571
0.398599
0.0871707
0.400188
0.0840994
0.40229
0.0840612
0.408767
0.0851876
0.415179
0.0854207
0.420833
0.0855342
0.426252
0.0851292
0.432035
0.0844689
0.438765
0.0839437
0.446831
0.0831893
0.456618
0.0824017
0.468438
0.081641
0.482558
0.0808071
0.499529
0.0800126
0.520186
0.0792397
0.545438
0.0781942
0.576386
0.0772447
0.61444
0.076418
0.661306
0.0758229
0.718936
0.0747039
0.789326
0.0740475
0.875183
0.0735821
0.97933
0.0732884
1.10454
0.0733912
1.25774
0.0757732
1.44682
0.0798146
1.68693
0.0845948
2.01361
0.094114
2.42689
0.112102
2.5675
0.116603
1.48223
0.0720472
0.497769
0.0164089
0.454195
0.00799931
0.450694
0.00741383
0.447202
0.00708622
0.442758
0.00674113
0.438559
0.00641148
0.434857
0.0061134
0.431488
0.00582186
0.428349
0.00546782
0.425403
0.00513842
0.422653
0.00482957
0.420068
0.00453829
0.417631
0.00426104
0.415335
0.00399826
0.413162
0.00375014
0.4111
0.00351552
0.409139
0.00329339
0.407271
0.00308261
0.405489
0.00288315
0.403785
0.00269375
0.402155
0.00251471
0.400592
0.00234463
0.39909
0.00218387
0.397644
0.00203128
0.39625
0.00188704
0.394903
0.00175027
0.393601
0.00162121
0.39234
0.00149874
0.391121
0.00138377
0.38994
0.00127459
0.388795
0.00117273
0.387684
0.00107672
0.386605
0.000988381
0.385555
0.000905741
0.384532
0.000827625
0.383534
0.000755206
0.382562
0.000687359
0.381614
0.00062364
0.380689
0.000565163
0.379787
0.000510337
0.378906
0.000459573
0.378045
0.000412754
0.377203
0.000369913
0.376379
0.000330023
0.375572
0.000293552
0.374781
0.00026067
0.374005
0.000230475
0.373244
0.000202887
0.372497
0.000178046
0.371764
0.000155969
0.371044
0.000136082
0.370337
0.000118117
0.369642
0.000102214
0.368959
8.83589e-05
0.368287
7.62022e-05
0.367625
6.54721e-05
0.366974
5.61561e-05
0.366334
4.82262e-05
0.365707
4.1405e-05
0.365094
3.52896e-05
0.364492
2.98742e-05
0.363898
2.55387e-05
0.363306
2.21943e-05
0.362704
1.94977e-05
0.362085
1.65185e-05
0.361477
1.21047e-05
0.360934
7.15055e-06
0.360442
4.12851e-06
0.360388
-1.79985e-06
0.361002
-4.40219e-06
0.363083
-1.03539e-05
0.367968
-1.747e-05
0.377772
-2.30528e-05
0.395562
-2.49337e-05
0.425375
-2.45572e-05
0.471775
-2.56576e-05
0.53797
-3.15899e-05
0.621333
-4.33088e-05
0.708529
-5.3275e-05
0.776755
-4.23619e-05
0.815269
-2.97226e-05
0.826927
-1.93496e-05
0.827213
-1.23882e-05
0.825404
-1.17712e-05
0.823107
-1.06075e-05
0.820515
-9.82927e-06
0.817896
-8.9981e-06
0.81549
-8.56669e-06
0.813258
-8.26767e-06
0.811198
-7.85843e-06
0.809362
-7.4974e-06
0.807685
-7.21894e-06
0.806069
-7.01478e-06
0.804437
-6.82086e-06
0.802762
-6.63767e-06
0.801058
-6.47708e-06
0.799354
-6.34178e-06
0.797677
-6.23227e-06
0.796043
-6.1395e-06
0.794457
-6.06127e-06
0.792916
-6.00277e-06
0.791411
-5.96739e-06
0.789934
-5.91267e-06
0.788474
-5.86223e-06
0.787022
-5.81504e-06
0.785566
-5.77043e-06
0.7841
-5.72682e-06
0.782632
-5.68446e-06
0.781187
-5.64676e-06
0.779799
-5.61824e-06
0.778487
-5.59221e-06
0.777249
-5.59186e-06
-5.63867e-06
0.0339206
0.133229
0.067656
0.132333
0.10075
0.133175
0.132984
0.132984
0.164077
0.132727
0.19368
0.132326
0.22135
0.131788
0.246755
0.131489
0.269822
0.130624
0.289363
0.129281
0.306349
0.129032
0.322105
0.129138
0.33467
0.127851
0.344106
0.126334
0.353041
0.125916
0.361542
0.125361
0.368159
0.124045
0.373548
0.122827
0.379279
0.121947
0.385362
0.121125
0.390195
0.119648
0.393168
0.116964
0.395515
0.114707
0.398412
0.114028
0.403499
0.114524
0.409431
0.114857
0.415093
0.11458
0.420403
0.113966
0.425621
0.113089
0.431377
0.112033
0.438062
0.111067
0.445997
0.109804
0.455636
0.108467
0.467336
0.107163
0.481343
0.105714
0.498157
0.104255
0.518554
0.102653
0.543472
0.100752
0.573977
0.0989962
0.611496
0.0974362
0.65786
0.096142
0.714929
0.0946234
0.78484
0.0938658
0.870257
0.0934071
0.974038
0.0935562
1.09965
0.0947012
1.25294
0.0972569
1.44258
0.102255
1.68602
0.109034
2.0215
0.122009
2.43557
0.14752
2.55446
0.148628
1.37401
0.0902185
0.485877
0.0211999
0.452341
0.012177
0.448984
0.0114512
0.445452
0.010993
0.441068
0.0104875
0.436949
0.00998159
0.433304
0.00948963
0.429976
0.00900784
0.426885
0.00855047
0.424002
0.00812848
0.421303
0.00772763
0.418776
0.00734594
0.416399
0.00698362
0.414154
0.00663898
0.41203
0.00631034
0.410016
0.0059966
0.408101
0.00569673
0.406277
0.00540992
0.404538
0.00513562
0.402876
0.00487289
0.401287
0.00462157
0.399763
0.00438049
0.398299
0.00414994
0.39689
0.00392855
0.395531
0.00371698
0.394219
0.00351372
0.39295
0.0033197
0.391722
0.0031332
0.390534
0.00295551
0.389384
0.0027846
0.388269
0.00262199
0.387187
0.0024658
0.386136
0.00231635
0.385112
0.00217381
0.384115
0.00203667
0.383143
0.00190655
0.382195
0.00178214
0.38127
0.00166283
0.380368
0.00155021
0.379488
0.00144233
0.378628
0.00133974
0.377787
0.00124242
0.376965
0.0011505
0.376159
0.00106276
0.375369
0.000979852
0.374594
0.000902127
0.373834
0.000828516
0.373088
0.000759
0.372355
0.00069387
0.371635
0.000633216
0.370928
0.000576395
0.370232
0.000523171
0.369548
0.000473794
0.368875
0.000428315
0.368212
0.000386331
0.367559
0.000347555
0.366915
0.000312002
0.366282
0.000279579
0.365661
0.00024997
0.365053
0.000222727
0.364457
0.000197719
0.363868
0.000175139
0.36328
0.000154953
0.362681
0.000136591
0.362065
0.00011901
0.36146
0.000100923
0.36092
8.32356e-05
0.360431
6.7224e-05
0.360378
4.86679e-05
0.360994
3.93908e-05
0.363076
2.68668e-05
0.367958
1.45724e-05
0.377758
2.2449e-06
0.395543
-8.53254e-06
0.425351
-1.73678e-05
0.471744
-2.47033e-05
0.537932
-3.39252e-05
0.62129
-4.58546e-05
0.708494
-5.11093e-05
0.776739
-4.26277e-05
0.815266
-3.3012e-05
0.826931
-2.10323e-05
0.827217
-1.53794e-05
0.825405
-1.45321e-05
0.823107
-1.28077e-05
0.820514
-1.1332e-05
0.817895
-9.91171e-06
0.81549
-9.04956e-06
0.813257
-8.45912e-06
0.811198
-7.95244e-06
0.809362
-7.55929e-06
0.807685
-7.26632e-06
0.806069
-7.03949e-06
0.804437
-6.8268e-06
0.802762
-6.62607e-06
0.801058
-6.44355e-06
0.799354
-6.28856e-06
0.797677
-6.16082e-06
0.796043
-6.05409e-06
0.794457
-5.96373e-06
0.792916
-5.8902e-06
0.791411
-5.82782e-06
0.789934
-5.77125e-06
0.788474
-5.71974e-06
0.787022
-5.67147e-06
0.785565
-5.62658e-06
0.784099
-5.58432e-06
0.782631
-5.54505e-06
0.781187
-5.51108e-06
0.779799
-5.48546e-06
0.778486
-5.46881e-06
0.777248
-5.47828e-06
-5.51279e-06
0.0338414
0.164437
0.0674694
0.163358
0.100539
0.164264
0.132727
0.164077
0.163767
0.163767
0.193283
0.163299
0.220907
0.162751
0.246389
0.162189
0.269011
0.160989
0.28874
0.160121
0.306398
0.159764
0.321433
0.158602
0.333338
0.156938
0.343439
0.155818
0.352763
0.154962
0.36059
0.153614
0.366794
0.151924
0.372635
0.150709
0.378579
0.149685
0.383849
0.148303
0.38778
0.14617
0.390953
0.144109
0.394409
0.143191
0.398975
0.143175
0.40423
0.143197
0.409347
0.14282
0.414308
0.141876
0.419238
0.140539
0.424363
0.139095
0.43004
0.137426
0.436573
0.135833
0.444332
0.133947
0.453721
0.131873
0.465103
0.12982
0.47878
0.127546
0.495157
0.125305
0.515133
0.122936
0.539601
0.120362
0.569594
0.118137
0.606597
0.116236
0.652519
0.114653
0.709072
0.11332
0.778616
0.11285
0.863625
0.112824
0.967061
0.113781
1.09294
0.115625
1.24664
0.118777
1.43824
0.12469
1.68721
0.134066
2.03803
0.151659
2.44524
0.184321
2.53211
0.182387
1.24189
0.10362
0.473972
0.0253993
0.449989
0.0169773
0.44678
0.0161282
0.443176
0.0155304
0.438842
0.0148717
0.434816
0.0142223
0.431254
0.0136071
0.427988
0.0130307
0.42496
0.0124878
0.422151
0.0119706
0.419526
0.0114786
0.417063
0.0110087
0.414745
0.0105594
0.412558
0.0101291
0.410489
0.00971632
0.408527
0.00931986
0.406663
0.00893852
0.404889
0.00857157
0.403198
0.00821812
0.401582
0.00787745
0.400037
0.00754908
0.398557
0.007232
0.397136
0.00692637
0.395768
0.00663071
0.39445
0.00634589
0.393176
0.00606996
0.391945
0.00580429
0.390755
0.00554662
0.389603
0.00529863
0.388488
0.00505781
0.387408
0.00482605
0.386359
0.00460118
0.385341
0.00438407
0.384349
0.00417486
0.383384
0.00397167
0.382443
0.00377656
0.381525
0.00358795
0.380629
0.00340509
0.379756
0.00323004
0.378904
0.00306037
0.378071
0.00289683
0.377257
0.00273944
0.376461
0.00258841
0.37568
0.00244227
0.374916
0.00230193
0.374165
0.00216783
0.373428
0.00203871
0.372705
0.00191463
0.371995
0.00179605
0.371296
0.0016831
0.37061
0.00157504
0.369934
0.00147164
0.36927
0.00137334
0.368615
0.00128021
0.36797
0.0011918
0.367334
0.00110776
0.366707
0.00102814
0.36609
0.000952854
0.365484
0.000881467
0.36489
0.000813476
0.364306
0.000748763
0.36373
0.000687338
0.363154
0.000628856
0.362566
0.00057262
0.361961
0.000517915
0.361366
0.000462511
0.360838
0.000405356
0.360361
0.000348932
0.360315
0.000287643
0.36094
0.000251266
0.363031
0.000200526
0.367923
0.000148052
0.377731
9.98827e-05
0.395519
5.94934e-05
0.425322
2.52772e-05
0.471708
-3.665e-06
0.537891
-2.64745e-05
0.62125
-4.18332e-05
0.708467
-4.53936e-05
0.776727
-3.90425e-05
0.815266
-3.0877e-05
0.826935
-2.06311e-05
0.82722
-1.65579e-05
0.825408
-1.57425e-05
0.823108
-1.38508e-05
0.820514
-1.22168e-05
0.817895
-1.07173e-05
0.81549
-9.61567e-06
0.813258
-8.83493e-06
0.811198
-8.22109e-06
0.809362
-7.76457e-06
0.807685
-7.42745e-06
0.806069
-7.15802e-06
0.804437
-6.91653e-06
0.802762
-6.69467e-06
0.801058
-6.49557e-06
0.799354
-6.32343e-06
0.797677
-6.17611e-06
0.796043
-6.05341e-06
0.794457
-5.95518e-06
0.792916
-5.86505e-06
0.791411
-5.78575e-06
0.789934
-5.71886e-06
0.788474
-5.66229e-06
0.787021
-5.61126e-06
0.785565
-5.5644e-06
0.784099
-5.52094e-06
0.782631
-5.48157e-06
0.781186
-5.44825e-06
0.779798
-5.42368e-06
0.778486
-5.40988e-06
0.777248
-5.41179e-06
-5.41868e-06
0.033809
0.194082
0.0672924
0.19304
0.100252
0.193908
0.132326
0.19368
0.163299
0.193283
0.192759
0.192759
0.220344
0.192131
0.245684
0.191321
0.268277
0.190259
0.288311
0.1894
0.305812
0.188336
0.320294
0.186664
0.332297
0.185124
0.342788
0.183885
0.351786
0.182368
0.359128
0.180488
0.365454
0.178792
0.371535
0.177429
0.37717
0.175995
0.381873
0.174135
0.38582
0.172248
0.389751
0.171018
0.394206
0.170601
0.399055
0.170243
0.403754
0.169434
0.408227
0.168148
0.412682
0.166245
0.417351
0.164203
0.422371
0.162127
0.427868
0.159854
0.434209
0.157596
0.441812
0.154973
0.450915
0.152169
0.461966
0.14942
0.475316
0.146443
0.491327
0.143686
0.510966
0.140806
0.535066
0.137945
0.564674
0.135658
0.601335
0.133723
0.646911
0.132119
0.703059
0.131178
0.772252
0.130999
0.856827
0.131449
0.960177
0.132973
1.08624
0.135668
1.24146
0.14004
1.43593
0.147544
1.69261
0.1608
2.06344
0.183827
2.44855
0.228354
2.48957
0.209202
1.09242
0.113066
0.463517
0.0300329
0.447171
0.0223817
0.444088
0.0214833
0.440409
0.020759
0.43614
0.0199794
0.432226
0.0192234
0.428749
0.0185123
0.42557
0.0178401
0.42263
0.0172015
0.419893
0.0165924
0.417336
0.0160091
0.414939
0.0154502
0.412685
0.0149135
0.410558
0.0143975
0.408547
0.0139006
0.406641
0.0134215
0.40483
0.0129587
0.403108
0.0125116
0.401467
0.0120789
0.3999
0.0116601
0.398402
0.0112545
0.396968
0.010861
0.395591
0.0104798
0.394266
0.0101093
0.39299
0.00975045
0.391758
0.00940104
0.390568
0.0090627
0.389417
0.00873287
0.388304
0.00841352
0.387227
0.00810181
0.386183
0.00779995
0.385172
0.00750556
0.384189
0.00721961
0.383232
0.00694219
0.382301
0.00667128
0.381394
0.00640911
0.380509
0.00615398
0.379647
0.00590508
0.378806
0.00566465
0.377985
0.00543004
0.377184
0.00520212
0.3764
0.0049809
0.375634
0.00476662
0.374883
0.00455777
0.374148
0.00435534
0.373426
0.00415983
0.372717
0.00396988
0.372022
0.00378565
0.371338
0.00360764
0.370667
0.00343597
0.370006
0.00326981
0.369357
0.00310898
0.368717
0.0029539
0.368088
0.00280456
0.367467
0.00266039
0.366855
0.00252091
0.366251
0.00238605
0.365656
0.00225557
0.365072
0.00212884
0.3645
0.00200514
0.363937
0.00188403
0.363382
0.00176517
0.362827
0.00164802
0.362259
0.00153144
0.361673
0.0014155
0.361098
0.00129612
0.360592
0.00116871
0.360142
0.00103751
0.360115
0.000895397
0.36076
0.0008039
0.362868
0.000675335
0.367783
0.000541327
0.377618
0.000409413
0.395434
0.000283642
0.425262
0.000172106
0.471664
8.45122e-05
0.537857
2.14141e-05
0.621223
-1.74863e-05
0.70845
-3.41705e-05
0.77672
-3.46531e-05
0.815266
-2.82018e-05
0.826938
-2.00584e-05
0.827223
-1.69562e-05
0.82541
-1.61305e-05
0.82311
-1.42734e-05
0.820515
-1.26872e-05
0.817896
-1.12197e-05
0.81549
-1.00481e-05
0.813258
-9.20224e-06
0.811198
-8.53045e-06
0.809362
-8.01561e-06
0.807686
-7.62441e-06
0.806069
-7.31119e-06
0.804437
-7.04202e-06
0.802762
-6.80299e-06
0.801058
-6.59077e-06
0.799354
-6.40479e-06
0.797677
-6.24274e-06
0.796042
-6.09972e-06
0.794457
-5.97262e-06
0.792915
-5.87022e-06
0.791411
-5.78098e-06
0.789934
-5.70455e-06
0.788474
-5.63423e-06
0.787021
-5.57697e-06
0.785565
-5.52698e-06
0.784099
-5.48174e-06
0.782631
-5.44132e-06
0.781186
-5.40674e-06
0.779798
-5.37983e-06
0.778486
-5.36116e-06
0.777247
-5.35181e-06
-5.34493e-06
0.0343824
0.221778
0.0670689
0.221048
0.0997249
0.221641
0.131788
0.22135
0.162751
0.220907
0.192131
0.220344
0.219606
0.219606
0.244815
0.218683
0.26747
0.217647
0.287499
0.216475
0.304668
0.214916
0.319031
0.213187
0.331227
0.211591
0.341622
0.209887
0.350238
0.207855
0.357474
0.205824
0.364014
0.204065
0.370031
0.202375
0.375313
0.200535
0.379913
0.198618
0.384275
0.197139
0.388827
0.196084
0.393493
0.195296
0.397915
0.193952
0.401953
0.1921
0.405887
0.189914
0.410014
0.187339
0.414525
0.184707
0.419421
0.182081
0.424789
0.179254
0.430994
0.176422
0.438371
0.173194
0.44728
0.169858
0.458107
0.166651
0.471234
0.163214
0.487001
0.160211
0.506378
0.157074
0.53016
0.15416
0.559423
0.151953
0.59576
0.149985
0.640927
0.148395
0.696702
0.147715
0.765453
0.147767
0.849736
0.148608
0.953163
0.15075
1.08013
0.154481
1.23722
0.160661
1.43633
0.171189
1.70282
0.187713
2.09642
0.218548
2.44003
0.268308
2.45642
0.238812
0.915725
0.11379
0.454779
0.0345302
0.443964
0.0283913
0.440963
0.0274737
0.437249
0.0266361
0.433038
0.0257457
0.42924
0.0248866
0.425867
0.0240784
0.422783
0.0233124
0.41992
0.0225805
0.417256
0.0218812
0.414769
0.0212104
0.412439
0.0205662
0.410248
0.0199463
0.408182
0.0193488
0.406229
0.0187718
0.404378
0.0182141
0.402622
0.0176741
0.400952
0.0171509
0.399361
0.0166433
0.397843
0.0161504
0.396392
0.0156715
0.395004
0.0152056
0.393672
0.0147527
0.392392
0.0143112
0.391158
0.013882
0.389968
0.0134629
0.388819
0.0130555
0.387708
0.012657
0.386635
0.0122697
0.385596
0.0118904
0.384591
0.0115214
0.383617
0.0111603
0.382671
0.010808
0.381751
0.0104646
0.380856
0.010128
0.379983
0.00980051
0.379134
0.00948035
0.378305
0.00916675
0.377498
0.00886192
0.376711
0.00856318
0.375942
0.00827145
0.375192
0.00798673
0.374457
0.00770928
0.373739
0.00743761
0.373034
0.00717277
0.372343
0.00691522
0.371666
0.00666362
0.371
0.00641814
0.370347
0.00617927
0.369704
0.00594704
0.369073
0.00572052
0.368452
0.00549946
0.367841
0.00528414
0.367239
0.00507434
0.366646
0.00486923
0.366062
0.00466809
0.365485
0.00447055
0.364917
0.00427603
0.36436
0.00408356
0.363814
0.00389198
0.363279
0.00370025
0.36275
0.00350773
0.362222
0.00331367
0.361682
0.00311591
0.361122
0.0029172
0.360574
0.00271067
0.360098
0.00248247
0.359689
0.00224028
0.359689
0.00199236
0.360365
0.00181377
0.362504
0.00156456
0.367453
0.00130684
0.377327
0.00105085
0.395188
0.00080049
0.42507
0.000563717
0.471534
0.000351135
0.537783
0.000178704
0.62119
6.08393e-05
0.708439
-1.01481e-06
0.776718
-2.38506e-05
0.815269
-2.54303e-05
0.826941
-1.95296e-05
0.827226
-1.70243e-05
0.825412
-1.61808e-05
0.823111
-1.43494e-05
0.820516
-1.28233e-05
0.817896
-1.142e-05
0.815491
-1.02771e-05
0.813258
-9.43517e-06
0.811199
-8.75083e-06
0.809362
-8.21035e-06
0.807686
-7.78963e-06
0.806069
-7.45146e-06
0.804437
-7.16455e-06
0.802762
-6.91203e-06
0.801058
-6.68627e-06
0.799354
-6.48411e-06
0.797677
-6.30375e-06
0.796043
-6.14369e-06
0.794457
-6.00503e-06
0.792916
-5.88684e-06
0.791411
-5.78424e-06
0.789934
-5.69606e-06
0.788474
-5.61956e-06
0.787021
-5.55542e-06
0.785565
-5.50053e-06
0.784099
-5.45219e-06
0.782631
-5.40957e-06
0.781186
-5.37262e-06
0.779798
-5.3425e-06
0.778486
-5.31912e-06
0.777247
-5.30223e-06
-5.28765e-06
0.0326205
0.248834
0.0649053
0.246149
0.0990251
0.246334
0.131489
0.246755
0.162189
0.246389
0.191321
0.245684
0.218683
0.244815
0.243827
0.243827
0.266432
0.242662
0.286276
0.241196
0.303257
0.239449
0.317635
0.237636
0.329791
0.235723
0.339921
0.233555
0.348358
0.231263
0.355661
0.22914
0.362229
0.227124
0.368056
0.225073
0.373192
0.223019
0.377954
0.22113
0.382637
0.219612
0.387261
0.218034
0.391528
0.216322
0.395328
0.213939
0.398912
0.21128
0.402583
0.208557
0.40658
0.205588
0.411008
0.202528
0.415819
0.199468
0.421105
0.196205
0.427158
0.192972
0.434487
0.18933
0.443343
0.185646
0.453956
0.18217
0.466906
0.178387
0.482487
0.175236
0.501605
0.171928
0.525084
0.168939
0.554012
0.166754
0.590021
0.164643
0.634743
0.163121
0.690207
0.162569
0.758522
0.163046
0.84279
0.164307
0.946551
0.16744
1.07476
0.172472
1.23491
0.181063
1.44055
0.194534
1.71887
0.216094
2.1404
0.254559
2.40086
0.312584
2.37485
0.267162
0.75653
0.109276
0.447717
0.0396317
0.440416
0.034938
0.437568
0.0339818
0.433741
0.0330333
0.429611
0.0320374
0.42593
0.0310815
0.422655
0.0301807
0.419652
0.0293247
0.416868
0.0285062
0.414278
0.0277225
0.411861
0.0269707
0.409597
0.026248
0.407469
0.0255515
0.405463
0.0248793
0.403568
0.0242293
0.401773
0.0236
0.40007
0.0229896
0.398451
0.0223971
0.396909
0.0218213
0.39544
0.0212611
0.394036
0.0207157
0.392693
0.0201841
0.391405
0.0196661
0.390168
0.0191601
0.388977
0.018667
0.387828
0.0181844
0.386719
0.0177141
0.385648
0.0172531
0.384614
0.0168036
0.383614
0.0163624
0.382647
0.0159318
0.381709
0.0155093
0.3808
0.0150957
0.379916
0.0146913
0.379056
0.0142939
0.378219
0.0139056
0.377404
0.0135249
0.37661
0.0131509
0.375837
0.0127858
0.375083
0.0124269
0.374348
0.0120751
0.37363
0.0117305
0.372928
0.0113933
0.372242
0.0110622
0.371569
0.010738
0.37091
0.0104212
0.370263
0.0101105
0.369629
0.00980607
0.369006
0.00950813
0.368394
0.00921661
0.367793
0.00893042
0.367202
0.00864909
0.366621
0.00837256
0.366049
0.00810029
0.365485
0.00783109
0.364929
0.00756384
0.364382
0.00729771
0.363843
0.00703162
0.363315
0.00676417
0.362799
0.0064938
0.362293
0.00621856
0.361794
0.00593757
0.361297
0.00565022
0.360789
0.00535205
0.360261
0.0050509
0.359745
0.004737
0.359303
0.00438082
0.35894
0.00399944
0.358969
0.00363672
0.359688
0.00332851
0.36187
0.0029256
0.366866
0.00251201
0.376788
0.00210007
0.394704
0.00168955
0.424653
0.00128547
0.471201
0.000901321
0.537551
0.00056048
0.621063
0.000288619
0.708392
0.000106896
0.776711
1.3404e-05
0.815274
-1.75114e-05
0.826944
-1.77209e-05
0.827229
-1.66117e-05
0.825414
-1.59151e-05
0.823113
-1.42182e-05
0.820517
-1.27415e-05
0.817897
-1.14053e-05
0.815492
-1.03246e-05
0.813259
-9.51996e-06
0.811199
-8.85408e-06
0.809362
-8.31711e-06
0.807686
-7.89229e-06
0.806069
-7.54818e-06
0.804437
-7.25442e-06
0.802762
-6.99294e-06
0.801059
-6.75588e-06
0.799354
-6.54093e-06
0.797677
-6.34761e-06
0.796043
-6.17622e-06
0.794457
-6.02685e-06
0.792916
-5.89715e-06
0.791411
-5.78558e-06
0.789934
-5.69004e-06
0.788474
-5.60852e-06
0.787021
-5.5387e-06
0.785565
-5.47815e-06
0.784099
-5.42535e-06
0.782631
-5.3794e-06
0.781186
-5.33931e-06
0.779798
-5.30523e-06
0.778486
-5.2764e-06
0.777247
-5.25178e-06
-5.22859e-06
0.0294175
0.270911
0.0661168
0.270217
0.0994489
0.270002
0.130624
0.269822
0.160989
0.269011
0.190259
0.268277
0.217647
0.26747
0.242662
0.266432
0.265078
0.265078
0.284734
0.263419
0.301619
0.261548
0.315921
0.259509
0.32788
0.257226
0.337809
0.254755
0.346203
0.252289
0.353516
0.249942
0.359962
0.247569
0.365648
0.245217
0.370779
0.24301
0.375642
0.240886
0.380272
0.238872
0.384544
0.236456
0.388322
0.233886
0.391748
0.230881
0.395157
0.227805
0.398789
0.224831
0.402757
0.221664
0.407127
0.218303
0.411865
0.214904
0.417094
0.211278
0.42311
0.207725
0.430431
0.203752
0.439243
0.199778
0.449738
0.196102
0.462501
0.191995
0.477872
0.188676
0.496655
0.185222
0.519801
0.18207
0.548377
0.179871
0.584046
0.17762
0.628332
0.176332
0.683553
0.175911
0.75171
0.177071
0.836343
0.178865
0.940881
0.18358
1.07132
0.190019
1.23576
0.20142
1.44885
0.219359
1.74383
0.245362
2.189
0.296502
2.44189
0.35724
2.12868
0.28688
0.62955
0.101651
0.441944
0.0454233
0.436608
0.0419097
0.433811
0.0408879
0.429916
0.0398288
0.425889
0.0387357
0.422325
0.0376914
0.419144
0.0367061
0.416224
0.035768
0.413518
0.0348716
0.411002
0.0340121
0.408655
0.0331872
0.406457
0.0323937
0.404391
0.0316287
0.402445
0.0308898
0.400606
0.0301747
0.398865
0.0294817
0.397214
0.0288089
0.395645
0.0281551
0.394152
0.0275189
0.392729
0.0268991
0.391371
0.026295
0.390072
0.0257052
0.388827
0.0251297
0.387631
0.0245667
0.386481
0.0240171
0.385372
0.0234785
0.384303
0.0229524
0.38327
0.022436
0.382273
0.0219314
0.38131
0.0214353
0.380379
0.0209499
0.379477
0.0204727
0.378603
0.0200047
0.377754
0.0195458
0.376929
0.0190941
0.376125
0.0186516
0.375344
0.0182166
0.374583
0.0177885
0.373842
0.0173692
0.373121
0.0169562
0.372418
0.0165505
0.371732
0.0161519
0.371062
0.0157607
0.370406
0.0153756
0.369765
0.0149975
0.369137
0.0146266
0.368521
0.0142617
0.367917
0.0139026
0.367324
0.0135494
0.366742
0.0132017
0.366171
0.0128582
0.36561
0.012518
0.365058
0.0121806
0.364515
0.011845
0.363981
0.0115095
0.363454
0.0111725
0.362936
0.0108327
0.362427
0.0104884
0.361928
0.0101376
0.361442
0.00977871
0.360967
0.00940864
0.360499
0.00902623
0.360033
0.00863173
0.359559
0.00821696
0.359066
0.00779558
0.358586
0.00735568
0.358184
0.00684689
0.357857
0.00632311
0.357928
0.00581799
0.358704
0.00535555
0.360934
0.00479508
0.365972
0.00420565
0.375941
0.00361012
0.393912
0.00300962
0.423932
0.00240663
0.470574
0.00181394
0.537051
0.00125519
0.620721
0.00076278
0.708211
0.00038362
0.776649
0.000138072
0.815267
2.03262e-05
0.826947
-1.16812e-05
0.827232
-1.57123e-05
0.825417
-1.47017e-05
0.823115
-1.38164e-05
0.820519
-1.26148e-05
0.817899
-1.13096e-05
0.815493
-1.0252e-05
0.81326
-9.4781e-06
0.8112
-8.84383e-06
0.809363
-8.32979e-06
0.807687
-7.92008e-06
0.80607
-7.58482e-06
0.804438
-7.29446e-06
0.802763
-7.03186e-06
0.801059
-6.79065e-06
0.799355
-6.56992e-06
0.797677
-6.37013e-06
0.796043
-6.19159e-06
0.794457
-6.03398e-06
0.792916
-5.89661e-06
0.791411
-5.77833e-06
0.789934
-5.67666e-06
0.788474
-5.5889e-06
0.787021
-5.51275e-06
0.785565
-5.44647e-06
0.784099
-5.38876e-06
0.782631
-5.33849e-06
0.781186
-5.29417e-06
0.779798
-5.25526e-06
0.778486
-5.22078e-06