/*--------------------------------*- C++ -*----------------------------------*\
  =========                 |
  \\      /  F ield         | OpenFOAM: The Open Source CFD Toolbox
   \\    /   O peration     | Website:  https://openfoam.org
    \\  /    A nd           | Version:  13
     \\/     M anipulation  |
\*---------------------------------------------------------------------------*/
FoamFile
{
    format      ascii;
    class       volScalarField;
    location    "0.0015";
    object      Qdot;
}
// * * * * * * * * * * * * * * * * * * * * * * * * * * * * * * * * * * * * * //

dimensions      [1 -1 -3 0 0 0 0];

internalField   nonuniform List<scalar> 
33334
(
-4.83716e-14
-5.21766e-14
-6.6687e-14
-1.02813e-13
-1.84542e-13
-3.75443e-13
-8.57407e-13
-2.19001e-12
-6.14815e-12
-1.87679e-11
-6.20057e-11
-2.14768e-10
-7.57431e-10
-2.72556e-09
-9.92936e-09
-3.5628e-08
-1.25157e-07
-4.34531e-07
-1.48604e-06
-4.90515e-06
0.000154075
0.000543249
0.0018786
0.00500744
0.0145288
0.0410205
0.110481
0.289485
0.725696
1.72587
3.86048
8.1366
16.3331
31.6113
59.4766
109.442
198.453
358.82
657.495
1244.96
2481.95
5316.16
12569.1
33623.6
103284
379682
1.76731e+06
1.06607e+07
8.84985e+07
1.17183e+09
2.77024e+10
3.21049e+11
1.54189e+10
1.66313e+08
7.7731e+07
7.15737e+07
6.67846e+07
6.21319e+07
5.79269e+07
5.41914e+07
5.08473e+07
4.78527e+07
4.52142e+07
4.28327e+07
4.06681e+07
3.86941e+07
3.68879e+07
3.52293e+07
3.37008e+07
3.22878e+07
3.09782e+07
2.97612e+07
2.86274e+07
2.75688e+07
2.65784e+07
2.56503e+07
2.47791e+07
2.39603e+07
2.31898e+07
2.24635e+07
2.1778e+07
2.11297e+07
2.05156e+07
1.99332e+07
1.93801e+07
1.88545e+07
1.83544e+07
1.78782e+07
1.74244e+07
1.69914e+07
1.65779e+07
1.61824e+07
1.58039e+07
1.54413e+07
1.50937e+07
1.47603e+07
1.44403e+07
1.41331e+07
1.38379e+07
1.35542e+07
1.32813e+07
1.30186e+07
1.27657e+07
1.2522e+07
1.2287e+07
1.20603e+07
1.18416e+07
1.16306e+07
1.14269e+07
1.12302e+07
1.10397e+07
1.08546e+07
1.06739e+07
1.04971e+07
1.03255e+07
1.01616e+07
1.00085e+07
9.8682e+06
9.73684e+06
9.6013e+06
9.43644e+06
9.20749e+06
8.80014e+06
8.05525e+06
6.77531e+06
4.89343e+06
2.73873e+06
1.02842e+06
215568
20867.6
866.692
20.5691
0.60417
0.0527097
0.0174166
0.012212
0.011549
0.011397
0.0114397
0.0115622
0.0115486
0.011536
0.0115142
0.0114146
0.0111838
0.0108656
0.0106776
0.0104713
0.0103611
0.0102188
0.0100871
0.00995579
0.00982016
0.0096804
0.00959656
0.00945823
0.00926862
0.00920085
0.00908557
0.00898073
0.00894253
0.00885366
0.00876504
0.0086714
0.00856999
0.00839859
-5.21766e-14
-5.62828e-14
-7.19183e-14
-1.10825e-13
-1.9875e-13
-4.04004e-13
-9.22024e-13
-2.34147e-12
-6.57405e-12
-2.02138e-11
-6.6105e-11
-2.255e-10
-8.01765e-10
-2.89647e-09
-1.03858e-08
-3.70016e-08
-1.31093e-07
-4.5536e-07
-1.53413e-06
-5.0328e-06
0.000154255
0.000544735
0.00158206
0.00493004
0.0143674
0.0401745
0.110309
0.291842
0.735702
1.75357
3.92926
8.30412
16.7326
32.5337
61.5297
113.861
207.732
378.006
697.292
1328.95
2665.32
5740.28
13636.7
36576.4
112663
415927
1.91318e+06
1.13416e+07
9.44366e+07
1.25561e+09
3.00614e+10
3.19649e+11
1.34485e+10
1.56751e+08
7.65576e+07
7.06121e+07
6.59146e+07
6.13686e+07
5.72841e+07
5.36871e+07
5.05072e+07
4.76673e+07
4.50546e+07
4.26874e+07
4.05378e+07
3.85782e+07
3.67844e+07
3.51371e+07
3.36191e+07
3.2216e+07
3.09156e+07
2.97068e+07
2.85807e+07
2.7529e+07
2.65449e+07
2.56223e+07
2.4756e+07
2.39415e+07
2.31746e+07
2.24515e+07
2.17684e+07
2.1122e+07
2.05095e+07
1.99281e+07
1.93758e+07
1.88506e+07
1.83509e+07
1.78752e+07
1.74217e+07
1.6989e+07
1.65758e+07
1.61806e+07
1.58024e+07
1.544e+07
1.50925e+07
1.47593e+07
1.44394e+07
1.41323e+07
1.38373e+07
1.35536e+07
1.32808e+07
1.30182e+07
1.27653e+07
1.25216e+07
1.22867e+07
1.206e+07
1.18413e+07
1.16303e+07
1.14266e+07
1.12299e+07
1.10395e+07
1.08544e+07
1.06736e+07
1.04969e+07
1.03253e+07
1.01613e+07
1.00082e+07
9.86792e+06
9.73654e+06
9.601e+06
9.43645e+06
9.20733e+06
8.80065e+06
8.05646e+06
6.77737e+06
4.89598e+06
2.74092e+06
1.02957e+06
215881
20903.4
868.237
20.6018
0.604882
0.0527413
0.017418
0.0122118
0.011548
0.0113959
0.0114385
0.011561
0.0115475
0.011535
0.0115132
0.0114137
0.0111829
0.0108647
0.0106767
0.0104705
0.0103602
0.010218
0.0100864
0.00995502
0.00981942
0.00967968
0.00959587
0.00945757
0.00926798
0.00920023
0.00908497
0.00898016
0.00894198
0.00885313
0.00876454
0.00867093
0.00856954
0.00839816
-6.6687e-14
-7.19183e-14
-9.17801e-14
-1.41086e-13
-2.52106e-13
-5.10223e-13
-1.15836e-12
-2.92907e-12
-8.19822e-12
-2.49413e-11
-8.07498e-11
-2.75225e-10
-9.71104e-10
-3.46567e-09
-1.23542e-08
-4.39191e-08
-1.54523e-07
-5.31779e-07
-1.78306e-06
-5.83959e-06
0.000279617
0.000663421
0.00197833
0.00557856
0.016247
0.0452157
0.123805
0.327292
0.826432
1.97561
4.43974
9.41792
19.0661
37.2871
70.9899
132.298
243.142
445.854
828.913
1590.64
3206.07
6931.79
16500.2
44151.3
135649
499134
2.27018e+06
1.32961e+07
1.09899e+08
1.46616e+09
3.50893e+10
3.17495e+11
1.04496e+10
1.42329e+08
7.51782e+07
6.95408e+07
6.4953e+07
6.05186e+07
5.65348e+07
5.30136e+07
4.98737e+07
4.704e+07
4.44765e+07
4.21579e+07
4.00516e+07
3.81311e+07
3.6373e+07
3.47582e+07
3.32704e+07
3.18951e+07
3.06202e+07
2.94351e+07
2.83309e+07
2.72996e+07
2.63344e+07
2.54294e+07
2.45796e+07
2.37804e+07
2.30278e+07
2.23179e+07
2.16472e+07
2.10125e+07
2.04107e+07
1.98394e+07
1.92965e+07
1.878e+07
1.82883e+07
1.78197e+07
1.73727e+07
1.69459e+07
1.65379e+07
1.61474e+07
1.57733e+07
1.54146e+07
1.50705e+07
1.47402e+07
1.4423e+07
1.41182e+07
1.38251e+07
1.35432e+07
1.32719e+07
1.30106e+07
1.27589e+07
1.25162e+07
1.22821e+07
1.20561e+07
1.1838e+07
1.16275e+07
1.14243e+07
1.12279e+07
1.10378e+07
1.08529e+07
1.06724e+07
1.04958e+07
1.03243e+07
1.01605e+07
1.00075e+07
9.86726e+06
9.7359e+06
9.60039e+06
9.43606e+06
9.20707e+06
8.80069e+06
8.05722e+06
6.77928e+06
4.89884e+06
2.74375e+06
1.03127e+06
216399
20969.3
871.401
20.6718
0.606376
0.0528083
0.0174238
0.0122112
0.0115466
0.0113942
0.0114368
0.0115593
0.0115458
0.0115334
0.0115117
0.0114122
0.0111816
0.0108634
0.0106755
0.0104693
0.0103591
0.0102169
0.0100853
0.00995398
0.00981843
0.00967873
0.00959496
0.0094567
0.00926715
0.00919944
0.00908422
0.00897945
0.00894131
0.00885251
0.00876396
0.0086704
0.00856906
0.00839773
-1.02813e-13
-1.10825e-13
-1.41086e-13
-2.15906e-13
-3.83314e-13
-7.69646e-13
-1.73186e-12
-4.34287e-12
-1.20214e-11
-3.60978e-11
-1.158e-10
-3.91231e-10
-1.36185e-09
-4.79676e-09
-1.69687e-08
-5.98608e-08
-2.08314e-07
-7.09782e-07
-2.36667e-06
-7.71689e-06
0.000103232
0.000475344
0.00234671
0.00715677
0.0206319
0.058075
0.158985
0.419742
1.06129
2.53936
5.71991
12.1811
24.7862
48.7655
93.4276
175.145
323.588
596.23
1112.58
2137.28
4300.45
9263.73
21900
57952.1
176059
638843
2.85825e+06
1.667e+07
1.35816e+08
1.83876e+09
4.36847e+10
3.03909e+11
7.26628e+09
1.25101e+08
7.32668e+07
6.79774e+07
6.35131e+07
5.92058e+07
5.5336e+07
5.1906e+07
4.88423e+07
4.60898e+07
4.36077e+07
4.13626e+07
3.93219e+07
3.74602e+07
3.57556e+07
3.41894e+07
3.27457e+07
3.14107e+07
3.01725e+07
2.90211e+07
2.79477e+07
2.69448e+07
2.60058e+07
2.5125e+07
2.42975e+07
2.3519e+07
2.27855e+07
2.20935e+07
2.14395e+07
2.08202e+07
2.02329e+07
1.96751e+07
1.91447e+07
1.86399e+07
1.81591e+07
1.77007e+07
1.72632e+07
1.68453e+07
1.64457e+07
1.6063e+07
1.56962e+07
1.53443e+07
1.50065e+07
1.4682e+07
1.43703e+07
1.40705e+07
1.37821e+07
1.35045e+07
1.32372e+07
1.29796e+07
1.27312e+07
1.24915e+07
1.22602e+07
1.20368e+07
1.1821e+07
1.16125e+07
1.14111e+07
1.12164e+07
1.10277e+07
1.08441e+07
1.06647e+07
1.04892e+07
1.03186e+07
1.01555e+07
1.00032e+07
9.86354e+06
9.73272e+06
9.59772e+06
9.43395e+06
9.20549e+06
8.79968e+06
8.05703e+06
6.78013e+06
4.9008e+06
2.74605e+06
1.03277e+06
216876
21032.1
874.454
20.7408
0.607751
0.0528713
0.0174294
0.0122106
0.0115455
0.0113929
0.0114354
0.0115579
0.0115445
0.0115321
0.0115105
0.0114111
0.0111231
0.0108625
0.0106746
0.0104684
0.0103583
0.0102161
0.0100845
0.00995327
0.00981776
0.00967811
0.00959438
0.00945617
0.00926665
0.00919899
0.0090838
0.00897907
0.00894097
0.0088522
0.0087637
0.00867017
0.00856887
0.00839757
-1.84542e-13
-1.9875e-13
-2.52106e-13
-3.83314e-13
-6.74296e-13
-1.33878e-12
-2.97468e-12
-7.35745e-12
-2.00491e-11
-5.93465e-11
-1.87999e-10
-6.25455e-10
-2.14217e-09
-7.45087e-09
-2.60671e-08
-9.07581e-08
-3.11673e-07
-1.05169e-06
-3.47756e-06
0.000116837
0.000389611
0.00133053
0.00338803
0.0101606
0.0292047
0.0822591
0.22476
0.592616
1.49448
3.57475
8.05977
17.1976
35.093
69.247
133.02
249.863
462.388
852.87
1590.65
3046.53
6099.35
13048.1
30536.1
79754.8
239085
851600
3.76138e+06
2.1687e+07
1.76481e+08
2.40861e+09
5.71331e+10
2.75535e+11
4.56571e+09
1.08539e+08
7.09102e+07
6.59721e+07
6.16422e+07
5.74832e+07
5.37552e+07
5.0453e+07
4.75072e+07
4.48635e+07
4.24785e+07
4.03198e+07
3.83571e+07
3.65657e+07
3.49249e+07
3.34168e+07
3.20261e+07
3.07395e+07
2.95458e+07
2.84354e+07
2.73999e+07
2.6432e+07
2.55255e+07
2.46749e+07
2.38755e+07
2.31231e+07
2.24141e+07
2.17448e+07
2.11121e+07
2.05128e+07
1.99443e+07
1.9404e+07
1.88902e+07
1.8401e+07
1.79348e+07
1.74903e+07
1.70659e+07
1.66604e+07
1.62724e+07
1.59007e+07
1.55444e+07
1.52024e+07
1.4874e+07
1.45584e+07
1.42551e+07
1.39633e+07
1.36824e+07
1.34119e+07
1.31513e+07
1.29001e+07
1.26577e+07
1.24236e+07
1.21976e+07
1.19792e+07
1.17681e+07
1.1564e+07
1.13667e+07
1.11758e+07
1.09907e+07
1.08104e+07
1.06341e+07
1.04615e+07
1.02936e+07
1.0133e+07
9.98305e+06
9.84558e+06
9.71691e+06
9.58403e+06
9.42225e+06
9.19616e+06
8.79219e+06
8.05199e+06
6.77747e+06
4.90013e+06
2.7465e+06
1.03333e+06
217106
21066.6
876.272
20.7839
0.6087
0.0529132
0.0174333
0.0122105
0.0115449
0.0113922
0.0114348
0.0115572
0.0115438
0.0115315
0.0115099
0.0114106
0.0111226
0.010862
0.0106742
0.010468
0.0103579
0.0102158
0.0100842
0.00995297
0.00981749
0.00967787
0.00959416
0.00945597
0.00926648
0.00919883
0.00908367
0.00897895
0.00894087
0.00885212
0.00876363
0.00867011
0.00856882
0.00839754
-3.75443e-13
-4.04004e-13
-5.10223e-13
-7.69646e-13
-1.33878e-12
-2.62183e-12
-5.73485e-12
-1.3938e-11
-3.72899e-11
-1.08443e-10
-3.37299e-10
-1.10074e-09
-3.70489e-09
-1.26894e-08
-4.36928e-08
-1.49671e-07
-5.06766e-07
-1.68933e-06
-5.51816e-06
0.000152669
0.000666165
0.00181987
0.00532088
0.0155025
0.0445162
0.124505
0.338622
0.889311
2.23852
5.34798
12.0568
25.7436
52.6032
103.925
199.814
375.516
695.101
1281.36
2384.28
4546.62
9046.55
19189.8
44398.7
114401
337450
1.18432e+06
5.15754e+06
2.93353e+07
2.40581e+08
3.35544e+09
7.86834e+10
2.25848e+11
2.65362e+09
9.41306e+07
6.82051e+07
6.36125e+07
5.94387e+07
5.54584e+07
5.19011e+07
4.87509e+07
4.59404e+07
4.34149e+07
4.11372e+07
3.90736e+07
3.71966e+07
3.54829e+07
3.39125e+07
3.24685e+07
3.11364e+07
2.99037e+07
2.87597e+07
2.76952e+07
2.67021e+07
2.57736e+07
2.49037e+07
2.40873e+07
2.33197e+07
2.25972e+07
2.19161e+07
2.12731e+07
2.06651e+07
2.0089e+07
1.95423e+07
1.90227e+07
1.85285e+07
1.80578e+07
1.76092e+07
1.71813e+07
1.67727e+07
1.63821e+07
1.60084e+07
1.56504e+07
1.5307e+07
1.49773e+07
1.46607e+07
1.43563e+07
1.40637e+07
1.37821e+07
1.3511e+07
1.32498e+07
1.29981e+07
1.27553e+07
1.2521e+07
1.22947e+07
1.2076e+07
1.18646e+07
1.16602e+07
1.14626e+07
1.12714e+07
1.10864e+07
1.0907e+07
1.07322e+07
1.05611e+07
1.03936e+07
1.02306e+07
1.00748e+07
9.92949e+06
9.79656e+06
9.67245e+06
9.54423e+06
9.38693e+06
9.16644e+06
8.76692e+06
8.03273e+06
6.76472e+06
4.89347e+06
2.74411e+06
1.0329e+06
217105
21074.1
876.845
20.8007
0.609142
0.0529335
0.0174355
0.0122105
0.0115447
0.011392
0.0114345
0.0115569
0.0115435
0.0115313
0.0115097
0.0114104
0.0111224
0.0108619
0.0106741
0.0104679
0.0103578
0.0102157
0.0100841
0.00995289
0.00981742
0.00967781
0.00959411
0.00945593
0.00926645
0.00919881
0.00908365
0.00897894
0.00894086
0.00885211
0.00876362
0.00867011
0.00856882
0.00839754
-8.57407e-13
-9.22024e-13
-1.15836e-12
-1.73186e-12
-2.97468e-12
-5.73485e-12
-1.23185e-11
-2.93438e-11
-7.68758e-11
-2.18771e-10
-6.65341e-10
-2.12453e-09
-7.00814e-09
-2.35369e-08
-7.9472e-08
-2.67326e-07
-8.90654e-07
-2.92393e-06
0.00011866
0.000225407
0.00117861
0.0031431
0.00886848
0.0253181
0.071575
0.199701
0.539465
1.41145
3.54245
8.44542
19.0199
40.604
82.9882
163.982
315.223
591.986
1094.35
2012.06
3727.55
7064.02
13938.6
29251.3
66799.9
169501
492577
1.70273e+06
7.32079e+06
4.14992e+07
3.4162e+08
4.92991e+09
1.1081e+11
1.68021e+11
1.37262e+09
8.25551e+07
6.52666e+07
6.09954e+07
5.69895e+07
5.3207e+07
4.98334e+07
4.68456e+07
4.4177e+07
4.17774e+07
3.96121e+07
3.76494e+07
3.58636e+07
3.42325e+07
3.27373e+07
3.1362e+07
3.00929e+07
2.89182e+07
2.78276e+07
2.68126e+07
2.58655e+07
2.49798e+07
2.41498e+07
2.33706e+07
2.2638e+07
2.19482e+07
2.12978e+07
2.06838e+07
2.0103e+07
1.95527e+07
1.90304e+07
1.85339e+07
1.80616e+07
1.76117e+07
1.71828e+07
1.67737e+07
1.63831e+07
1.60096e+07
1.56521e+07
1.53096e+07
1.49811e+07
1.46656e+07
1.43626e+07
1.40712e+07
1.3791e+07
1.35214e+07
1.32617e+07
1.30115e+07
1.27703e+07
1.25376e+07
1.2313e+07
1.2096e+07
1.18864e+07
1.16836e+07
1.14876e+07
1.1298e+07
1.11146e+07
1.09372e+07
1.07652e+07
1.05978e+07
1.04339e+07
1.02735e+07
1.01176e+07
9.96889e+06
9.83054e+06
9.70453e+06
9.5875e+06
9.46675e+06
9.31649e+06
9.10499e+06
8.71373e+06
7.99008e+06
6.73399e+06
4.875e+06
2.73593e+06
1.03066e+06
216798
21058.4
876.647
20.8025
0.60921
0.0529416
0.0174366
0.0122106
0.0115447
0.0113919
0.0114345
0.0115569
0.0115435
0.0115312
0.0115096
0.0114103
0.0111224
0.0108618
0.010674
0.0104679
0.0103578
0.0102156
0.0100841
0.00995288
0.00981741
0.0096778
0.00959411
0.00945593
0.00926645
0.00919881
0.00908365
0.00897894
0.00894086
0.00885211
0.00876362
0.00867011
0.00856882
0.00839754
-2.19001e-12
-2.34147e-12
-2.92907e-12
-4.34287e-12
-7.35745e-12
-1.3938e-11
-2.93438e-11
-6.8376e-11
-1.74966e-10
-4.85707e-10
-1.44039e-09
-4.48817e-09
-1.44573e-08
-4.74324e-08
-1.56629e-07
-5.1625e-07
-1.68775e-06
-5.44086e-06
0.000152894
0.000539686
0.00182192
0.00507218
0.0152067
0.0437431
0.122631
0.33778
0.907106
2.36054
5.90181
14.029
31.5292
67.2235
137.257
270.9
519.775
973.292
1791.74
3275.23
6022.45
11309.9
22069.7
45720.7
102849
257090
735657
2.5131e+06
1.07277e+07
6.03424e+07
5.0831e+08
7.66829e+09
1.57579e+11
1.08377e+11
6.86179e+08
7.36059e+07
6.21798e+07
5.81933e+07
5.43645e+07
5.07861e+07
4.7604e+07
4.47824e+07
4.22601e+07
3.99903e+07
3.79413e+07
3.60833e+07
3.43921e+07
3.28469e+07
3.143e+07
3.01263e+07
2.89229e+07
2.78087e+07
2.67741e+07
2.5811e+07
2.49121e+07
2.40714e+07
2.32834e+07
2.25435e+07
2.18477e+07
2.11926e+07
2.05748e+07
1.99915e+07
1.94397e+07
1.89168e+07
1.84205e+07
1.79487e+07
1.74998e+07
1.70722e+07
1.66645e+07
1.62756e+07
1.59042e+07
1.55492e+07
1.52093e+07
1.48837e+07
1.45712e+07
1.42713e+07
1.3983e+07
1.37059e+07
1.34394e+07
1.31829e+07
1.29358e+07
1.26978e+07
1.24682e+07
1.22468e+07
1.2033e+07
1.18266e+07
1.1627e+07
1.14342e+07
1.12478e+07
1.10676e+07
1.08935e+07
1.07252e+07
1.05622e+07
1.04037e+07
1.02488e+07
1.00975e+07
9.95072e+06
9.81111e+06
9.68194e+06
9.56503e+06
9.4573e+06
9.34662e+06
9.20579e+06
9.00592e+06
8.62733e+06
7.9188e+06
6.68078e+06
4.84124e+06
2.71957e+06
1.02546e+06
215928
20998.4
875.208
20.7884
0.609177
0.0529443
0.0174374
0.0122108
0.0115448
0.011392
0.0114345
0.0115569
0.0115435
0.0115312
0.0115096
0.0114104
0.0111224
0.0108619
0.010674
0.0104679
0.0103578
0.0102156
0.0100841
0.00995289
0.00981742
0.00967781
0.00959412
0.00945593
0.00926645
0.00919881
0.00908366
0.00897895
0.00894086
0.00885212
0.00876363
0.00867011
0.00856883
0.00839754
-6.14815e-12
-6.57405e-12
-8.19822e-12
-1.20214e-11
-2.00491e-11
-3.72899e-11
-7.68758e-11
-1.74966e-10
-4.36377e-10
-1.17907e-09
-3.4018e-09
-1.03136e-08
-3.23332e-08
-1.03325e-07
-3.32869e-07
-1.07216e-06
-3.42942e-06
0.000116999
0.000390289
0.00116394
0.00335279
0.00974809
0.0277445
0.0789734
0.219881
0.599921
1.59957
4.13782
10.2917
24.3593
54.5523
115.971
236.126
464.468
887.128
1651.08
3016.2
5462.71
9937.82
18443.6
35517.5
72526
160643
395439
1.1175e+06
3.77819e+06
1.60489e+07
9.07389e+07
7.88105e+08
1.2519e+10
2.18912e+11
5.83427e+10
3.50224e+08
6.67858e+07
5.90037e+07
5.52623e+07
5.1619e+07
4.825e+07
4.52614e+07
4.26082e+07
4.02328e+07
3.80961e+07
3.61653e+07
3.44138e+07
3.28189e+07
3.13612e+07
3.00241e+07
2.87934e+07
2.76571e+07
2.66048e+07
2.56275e+07
2.47175e+07
2.3868e+07
2.30733e+07
2.23284e+07
2.16289e+07
2.0971e+07
2.03514e+07
1.97672e+07
1.92154e+07
1.86935e+07
1.81989e+07
1.77294e+07
1.7283e+07
1.68583e+07
1.64537e+07
1.60681e+07
1.57001e+07
1.53487e+07
1.50128e+07
1.46913e+07
1.43831e+07
1.40875e+07
1.38037e+07
1.3531e+07
1.32688e+07
1.30166e+07
1.27738e+07
1.25401e+07
1.23148e+07
1.20977e+07
1.18882e+07
1.1686e+07
1.14909e+07
1.13024e+07
1.11204e+07
1.09446e+07
1.07749e+07
1.06112e+07
1.04533e+07
1.03007e+07
1.01526e+07
1.00083e+07
9.86763e+06
9.73174e+06
9.60308e+06
9.48498e+06
9.37907e+06
9.28241e+06
9.18385e+06
9.05554e+06
8.86705e+06
8.50571e+06
7.81674e+06
6.60265e+06
4.78987e+06
2.69343e+06
1.0166e+06
214294
20867.9
871.295
20.7357
0.608624
0.0529321
0.0174377
0.012211
0.0115449
0.011392
0.0114345
0.0115569
0.0115435
0.0115313
0.0115096
0.0114104
0.0111224
0.0108619
0.0106741
0.0104679
0.0103578
0.0102157
0.0100841
0.0099529
0.00981743
0.00967782
0.00959413
0.00945594
0.00926646
0.00919882
0.00908366
0.00897895
0.00894087
0.00885212
0.00876363
0.00867012
0.00856883
0.00839755
-1.87679e-11
-2.02138e-11
-2.49413e-11
-3.60978e-11
-5.93465e-11
-1.08443e-10
-2.18771e-10
-4.85707e-10
-1.17907e-09
-3.09615e-09
-8.67374e-09
-2.55225e-08
-7.76696e-08
-2.41176e-07
-7.56068e-07
-2.37313e-06
-7.4073e-06
0.000104385
0.00047914
0.00222942
0.00629746
0.018847
0.0534601
0.149632
0.411742
1.11218
2.93831
7.54372
18.6342
43.8265
97.595
206.412
418.058
817.161
1548.5
2854.72
5158.58
9231.32
16574.8
30339.9
57588.4
115854
252776
613457
1.71402e+06
5.76757e+06
2.44765e+07
1.40627e+08
1.27134e+09
2.15931e+10
2.76526e+11
2.57399e+10
1.93414e+08
6.13871e+07
5.57861e+07
5.22564e+07
4.88065e+07
4.56498e+07
4.28541e+07
4.03692e+07
3.81415e+07
3.61364e+07
3.43238e+07
3.2679e+07
3.11805e+07
2.98103e+07
2.85531e+07
2.73956e+07
2.63266e+07
2.53364e+07
2.44165e+07
2.35597e+07
2.27599e+07
2.20114e+07
2.13098e+07
2.06508e+07
2.00309e+07
1.94471e+07
1.88966e+07
1.83766e+07
1.78847e+07
1.74186e+07
1.6976e+07
1.65553e+07
1.6155e+07
1.57736e+07
1.54101e+07
1.50633e+07
1.47321e+07
1.44155e+07
1.41125e+07
1.38221e+07
1.35435e+07
1.3276e+07
1.3019e+07
1.27719e+07
1.25342e+07
1.23055e+07
1.20852e+07
1.18731e+07
1.16686e+07
1.14715e+07
1.12815e+07
1.10981e+07
1.09213e+07
1.07507e+07
1.05863e+07
1.04279e+07
1.02756e+07
1.0129e+07
9.98789e+06
9.85146e+06
9.71896e+06
9.5903e+06
9.46665e+06
9.35033e+06
9.24472e+06
9.15131e+06
9.06704e+06
8.98221e+06
8.86853e+06
8.69157e+06
8.34931e+06
7.68312e+06
6.49815e+06
4.7194e+06
2.65632e+06
1.00343e+06
211705
20642.3
863.655
20.6123
0.606682
0.0528671
0.0174335
0.012211
0.011545
0.0113921
0.0114346
0.011557
0.0115436
0.0115313
0.0115097
0.0114104
0.0111225
0.0108619
0.0106741
0.0104679
0.0103578
0.0102157
0.0100841
0.00995291
0.00981744
0.00967783
0.00959414
0.00945595
0.00926647
0.00919883
0.00908367
0.00897896
0.00894088
0.00885213
0.00876364
0.00867012
0.00856883
0.00839755
-6.20057e-11
-6.6105e-11
-8.07498e-11
-1.158e-10
-1.87999e-10
-3.37299e-10
-6.65341e-10
-1.44039e-09
-3.4018e-09
-8.67374e-09
-2.35594e-08
-6.71621e-08
-1.98031e-07
-5.96268e-07
-1.81464e-06
-5.53679e-06
0.0001527
0.000539765
0.00173836
0.00495179
0.0135149
0.0383583
0.107096
0.294374
0.799308
2.13374
5.57961
14.1894
34.7292
80.9507
178.749
375.063
753.473
1458.86
2733.83
4977.77
8876.47
15665.9
27719.8
49984.7
93464.7
185304
398737
956068
2.65086e+06
8.89976e+06
3.80849e+07
2.24737e+08
2.15487e+09
3.89287e+10
2.86034e+11
9.37581e+09
1.18581e+08
5.69234e+07
5.25696e+07
4.92248e+07
4.59755e+07
4.30312e+07
4.04254e+07
3.81047e+07
3.60238e+07
3.41486e+07
3.24526e+07
3.09128e+07
2.95094e+07
2.82257e+07
2.70474e+07
2.59622e+07
2.49596e+07
2.40306e+07
2.31675e+07
2.23634e+07
2.16125e+07
2.09098e+07
2.02509e+07
1.96319e+07
1.90497e+07
1.85012e+07
1.7984e+07
1.74955e+07
1.70333e+07
1.65953e+07
1.61794e+07
1.57841e+07
1.54079e+07
1.50495e+07
1.47079e+07
1.4382e+07
1.40708e+07
1.37733e+07
1.34886e+07
1.32157e+07
1.2954e+07
1.27027e+07
1.24612e+07
1.22291e+07
1.20058e+07
1.17911e+07
1.15843e+07
1.13853e+07
1.11936e+07
1.1009e+07
1.08312e+07
1.066e+07
1.04951e+07
1.03365e+07
1.0184e+07
1.00376e+07
9.89725e+06
9.76283e+06
9.63395e+06
9.50998e+06
9.39016e+06
9.27439e+06
9.16389e+06
9.06081e+06
8.96859e+06
8.88857e+06
8.81739e+06
8.74673e+06
8.64842e+06
8.4842e+06
8.16126e+06
7.52e+06
6.36805e+06
4.62971e+06
2.6078e+06
985578
208029
20301.4
851.085
20.3832
0.602532
0.0526765
0.0174138
0.0122084
0.011544
0.0113921
0.0114347
0.0115571
0.0115436
0.0115313
0.0115097
0.0114104
0.0111225
0.0108619
0.0106741
0.0104679
0.0103578
0.0102157
0.0100841
0.00995293
0.00981746
0.00967785
0.00959415
0.00945597
0.00926648
0.00919884
0.00908368
0.00897897
0.00894089
0.00885214
0.00876364
0.00867013
0.00856884
0.00839755
-2.14768e-10
-2.255e-10
-2.75225e-10
-3.91231e-10
-6.25455e-10
-1.10074e-09
-2.12453e-09
-4.48817e-09
-1.03136e-08
-2.55225e-08
-6.71621e-08
-1.85319e-07
-5.28805e-07
-1.54156e-06
-4.54629e-06
0.000113775
0.000381786
0.00114147
0.00346018
0.0104217
0.0291594
0.0804066
0.220116
0.596086
1.59488
4.20331
10.8622
27.3097
66.0624
152.162
332.128
689.256
1369.3
2618.49
4839.64
8684.76
15257
26522.7
46209.3
82045.6
151167
295697
628559
1.49491e+06
4.13252e+06
1.39049e+07
6.04922e+07
3.71818e+08
3.86451e+09
7.22455e+10
2.2091e+11
3.06752e+09
8.08449e+07
5.30398e+07
4.93897e+07
4.62103e+07
4.31665e+07
4.0432e+07
3.80103e+07
3.58512e+07
3.39123e+07
3.21639e+07
3.05815e+07
2.91441e+07
2.78334e+07
2.6634e+07
2.55326e+07
2.4518e+07
2.35803e+07
2.27111e+07
2.19033e+07
2.11506e+07
2.04476e+07
1.97895e+07
1.91724e+07
1.85926e+07
1.8047e+07
1.75331e+07
1.70484e+07
1.65906e+07
1.61574e+07
1.57469e+07
1.53571e+07
1.49865e+07
1.46338e+07
1.42979e+07
1.39777e+07
1.36722e+07
1.33805e+07
1.31016e+07
1.28347e+07
1.2579e+07
1.23336e+07
1.20981e+07
1.18718e+07
1.16543e+07
1.14452e+07
1.12442e+07
1.10508e+07
1.08647e+07
1.06858e+07
1.05137e+07
1.03482e+07
1.01892e+07
1.00366e+07
9.89013e+06
9.74989e+06
9.61583e+06
9.48795e+06
9.36613e+06
9.24999e+06
9.13897e+06
9.0323e+06
8.92986e+06
8.83291e+06
8.74342e+06
8.66486e+06
8.59838e+06
8.54032e+06
8.48337e+06
8.40042e+06
8.24993e+06
7.94608e+06
7.331e+06
6.2148e+06
4.52196e+06
2.54809e+06
962960
203197
19831.8
832.661
20.0178
0.595047
0.0522606
0.0173575
0.012198
0.0115393
0.011391
0.0114346
0.0115574
0.0115439
0.0115314
0.0115098
0.0114105
0.0111225
0.010862
0.0106741
0.0104679
0.0103578
0.0102157
0.0100842
0.00995294
0.00981747
0.00967786
0.00959416
0.00945598
0.00926649
0.00919885
0.00908369
0.00897898
0.00894089
0.00885214
0.00876365
0.00867013
0.00856884
0.00839756
-7.57431e-10
-8.01765e-10
-9.71104e-10
-1.36185e-09
-2.14217e-09
-3.70489e-09
-7.00814e-09
-1.44573e-08
-3.23332e-08
-7.76696e-08
-1.98031e-07
-5.28805e-07
-1.45954e-06
-4.11617e-06
0.000115466
0.000387604
0.00103439
0.00310004
0.00830643
0.0233996
0.0639853
0.172938
0.464135
1.23474
3.24999
8.44069
21.5155
53.3568
127.231
288.742
621.143
1271.17
2490.3
4692.2
8537.74
15077.6
26062.4
44583.7
76454.5
133693
242944
469665
988900
2.34243e+06
6.49506e+06
2.20755e+07
9.85059e+07
6.41076e+08
7.3591e+09
1.31951e+11
1.23955e+11
9.30655e+08
6.22869e+07
4.94972e+07
4.62672e+07
4.32494e+07
4.04131e+07
3.78828e+07
3.56391e+07
3.36349e+07
3.18331e+07
3.02071e+07
2.87345e+07
2.7396e+07
2.61749e+07
2.5057e+07
2.403e+07
2.30835e+07
2.22085e+07
2.13973e+07
2.06431e+07
1.99401e+07
1.92833e+07
1.86685e+07
1.80917e+07
1.75497e+07
1.70398e+07
1.65593e+07
1.6106e+07
1.56779e+07
1.52727e+07
1.48887e+07
1.45242e+07
1.41775e+07
1.38476e+07
1.35334e+07
1.32338e+07
1.2948e+07
1.26751e+07
1.24142e+07
1.21645e+07
1.19253e+07
1.16958e+07
1.14755e+07
1.12639e+07
1.10606e+07
1.08652e+07
1.06775e+07
1.04971e+07
1.03239e+07
1.01575e+07
9.99782e+06
9.84471e+06
9.69803e+06
9.55769e+06
9.42363e+06
9.29583e+06
9.17432e+06
9.05909e+06
8.95004e+06
8.8468e+06
8.74886e+06
8.65543e+06
8.56634e+06
8.48284e+06
8.40676e+06
8.34156e+06
8.28818e+06
8.24281e+06
8.19866e+06
8.13033e+06
7.99407e+06
7.70879e+06
7.12031e+06
6.04161e+06
4.39808e+06
2.47799e+06
935729
197202
19227.6
807.835
19.4944
0.583508
0.0516297
0.0172903
0.0121696
0.011525
0.0113863
0.0114329
0.0115575
0.0115443
0.0115317
0.0115099
0.0114105
0.0111225
0.010862
0.0106742
0.010468
0.0103578
0.0102157
0.0100842
0.00995296
0.00981748
0.00967787
0.00959417
0.00945599
0.0092665
0.00919886
0.0090837
0.00897899
0.0089409
0.00885215
0.00876366
0.00867014
0.00856885
0.00839757
-2.72556e-09
-2.89647e-09
-3.46567e-09
-4.79676e-09
-7.45087e-09
-1.26894e-08
-2.35369e-08
-4.74324e-08
-1.03325e-07
-2.41176e-07
-5.96268e-07
-1.54156e-06
-4.11617e-06
0.000115982
0.000390173
0.000876667
0.00254921
0.00732854
0.0197762
0.0534556
0.142687
0.378688
0.995869
2.5982
6.719
17.1662
43.0721
105.107
246.409
549.538
1162.15
2339.55
4509.25
8356.03
14947.8
25949.6
44092.6
74172.9
125189
215754
387204
741411
1.55172e+06
3.6781e+06
1.0289e+07
3.57228e+07
1.65072e+08
1.16047e+09
1.50109e+10
2.16683e+11
4.96662e+10
3.02742e+08
5.27765e+07
4.61751e+07
4.32203e+07
4.03709e+07
3.77414e+07
3.54061e+07
3.33328e+07
3.14766e+07
2.98062e+07
2.82976e+07
2.69303e+07
2.56867e+07
2.45516e+07
2.35118e+07
2.25562e+07
2.16751e+07
2.08603e+07
2.01046e+07
1.94018e+07
1.87466e+07
1.81343e+07
1.7561e+07
1.7023e+07
1.65174e+07
1.60415e+07
1.55931e+07
1.51701e+07
1.47704e+07
1.43922e+07
1.40337e+07
1.36933e+07
1.33696e+07
1.30615e+07
1.27681e+07
1.24883e+07
1.22214e+07
1.19665e+07
1.17228e+07
1.14896e+07
1.12662e+07
1.10518e+07
1.08462e+07
1.06487e+07
1.04591e+07
1.0277e+07
1.01023e+07
9.93469e+06
9.77396e+06
9.61997e+06
9.47262e+06
9.33178e+06
9.19738e+06
9.06936e+06
8.94768e+06
8.83234e+06
8.72337e+06
8.62076e+06
8.52442e+06
8.43395e+06
8.34886e+06
8.26839e+06
8.19228e+06
8.12174e+06
8.05847e+06
8.0059e+06
7.96484e+06
7.93147e+06
7.89907e+06
7.84403e+06
7.72187e+06
7.45435e+06
6.89217e+06
5.85191e+06
4.26038e+06
2.39868e+06
904264
190103
18491.3
776.48
18.8019
0.567225
0.0505959
0.0171146
0.0121095
0.0114916
0.0113723
0.0114259
0.0115562
0.0115447
0.0115322
0.0115103
0.0114107
0.0111226
0.010862
0.0106742
0.010468
0.0103579
0.0102157
0.0100842
0.00995298
0.0098175
0.00967788
0.00959419
0.009456
0.00926651
0.00919887
0.00908371
0.008979
0.00894091
0.00885216
0.00876367
0.00867015
0.00856886
0.00839757
-9.92936e-09
-1.03858e-08
-1.23542e-08
-1.69687e-08
-2.60671e-08
-4.36928e-08
-7.9472e-08
-1.56629e-07
-3.32869e-07
-7.56068e-07
-1.81464e-06
-4.54629e-06
0.000115466
0.000390173
0.00087968
0.00248041
0.00638826
0.0174343
0.0467144
0.12332
0.322999
0.838414
2.15995
5.5251
14.0186
35.1728
86.6982
207.691
477.484
1043.98
2165.88
4280.95
8103.63
14747.2
25903
44153.5
73690.8
121852
202466
344267
611325
1.16227e+06
2.4293e+06
5.7962e+06
1.64685e+07
5.90625e+07
2.86447e+08
2.22763e+09
3.24172e+10
2.71498e+11
1.38283e+10
1.27015e+08
4.71462e+07
4.3025e+07
4.02677e+07
3.75956e+07
3.51703e+07
3.30207e+07
3.11077e+07
2.93922e+07
2.78468e+07
2.645e+07
2.51831e+07
2.40299e+07
2.29767e+07
2.20114e+07
2.11239e+07
2.03052e+07
1.95478e+07
1.88451e+07
1.81915e+07
1.75818e+07
1.7012e+07
1.64782e+07
1.59772e+07
1.55063e+07
1.5063e+07
1.46453e+07
1.4251e+07
1.38786e+07
1.35261e+07
1.31919e+07
1.28745e+07
1.25728e+07
1.22855e+07
1.20119e+07
1.1751e+07
1.1502e+07
1.12643e+07
1.1037e+07
1.08195e+07
1.06111e+07
1.04113e+07
1.02197e+07
1.00358e+07
9.85935e+06
9.69019e+06
9.52809e+06
9.37288e+06
9.22443e+06
9.08264e+06
8.94744e+06
8.81875e+06
8.69651e+06
8.58069e+06
8.47126e+06
8.36823e+06
8.27159e+06
8.18136e+06
8.0974e+06
8.01929e+06
7.94658e+06
7.87846e+06
7.81469e+06
7.75629e+06
7.70499e+06
7.66406e+06
7.63433e+06
7.612e+06
7.59013e+06
7.5469e+06
7.4381e+06
7.18743e+06
6.65072e+06
5.64908e+06
4.11127e+06
2.31149e+06
869062
182006
17632.5
738.912
17.9414
0.546082
0.0491274
0.0166726
0.0120014
0.0114271
0.0113408
0.0114066
0.0115497
0.011544
0.0115326
0.0115109
0.0114112
0.0111228
0.0108621
0.0106742
0.010468
0.0103579
0.0102158
0.0100842
0.00995299
0.00981751
0.0096779
0.0095942
0.00945601
0.00926653
0.00919888
0.00908372
0.00897901
0.00894092
0.00885217
0.00876368
0.00867016
0.00856887
0.00839758
-3.5628e-08
-3.70016e-08
-4.39191e-08
-5.98608e-08
-9.07581e-08
-1.49671e-07
-2.67326e-07
-5.1625e-07
-1.07216e-06
-2.37313e-06
-5.53679e-06
0.000113775
0.000387604
0.000876667
0.00248041
0.00623946
0.0164016
0.0430174
0.111964
0.288422
0.737611
1.87142
4.71719
11.8166
29.3849
72.3144
174.811
410.187
922.524
1973.04
4008.54
7767.6
14421
25738.1
44329.3
74105.1
121400
197322
323003
542831
956270
1.81175e+06
3.80211e+06
9.19327e+06
2.67699e+07
9.98031e+07
5.21188e+08
4.58291e+09
7.25861e+10
2.07724e+11
3.0406e+09
6.98137e+07
4.31574e+07
4.003e+07
3.74244e+07
3.49391e+07
3.27108e+07
3.0737e+07
2.89752e+07
2.73927e+07
2.59657e+07
2.46748e+07
2.35029e+07
2.24355e+07
2.146e+07
2.05654e+07
1.97424e+07
1.8983e+07
1.82801e+07
1.76277e+07
1.70206e+07
1.64543e+07
1.59247e+07
1.54286e+07
1.49628e+07
1.45249e+07
1.41125e+07
1.37238e+07
1.3357e+07
1.30104e+07
1.26823e+07
1.23712e+07
1.20757e+07
1.17948e+07
1.15273e+07
1.12724e+07
1.10294e+07
1.07975e+07
1.0576e+07
1.03643e+07
1.01618e+07
9.96776e+06
9.78182e+06
9.60356e+06
9.43268e+06
9.26898e+06
9.11228e+06
8.96244e+06
8.81935e+06
8.68292e+06
8.5531e+06
8.42984e+06
8.31308e+06
8.2028e+06
8.09895e+06
8.0015e+06
7.91045e+06
7.82578e+06
7.74746e+06
7.67535e+06
7.60899e+06
7.54792e+06
7.49135e+06
7.43904e+06
7.39183e+06
7.3515e+06
7.32105e+06
7.30151e+06
7.28909e+06
7.27649e+06
7.24359e+06
7.14701e+06
6.91214e+06
6.3998e+06
5.43634e+06
3.95312e+06
2.2178e+06
830692
173045
16666.4
695.824
16.9257
0.520229
0.0472438
0.0161617
0.0118256
0.0113193
0.0112808
0.0113652
0.0115306
0.0115386
0.0115323
0.0115113
0.0114119
0.0111233
0.0108623
0.0106743
0.010468
0.0103579
0.0102158
0.0100842
0.00995301
0.00981753
0.00967791
0.00959421
0.00945602
0.00926654
0.00919889
0.00908373
0.00897902
0.00894093
0.00885218
0.00876369
0.00867017
0.00856888
0.00839759
-1.25157e-07
-1.31093e-07
-1.54523e-07
-2.08314e-07
-3.11673e-07
-5.06766e-07