/*--------------------------------*- C++ -*----------------------------------*\
  =========                 |
  \\      /  F ield         | OpenFOAM: The Open Source CFD Toolbox
   \\    /   O peration     | Website:  https://openfoam.org
    \\  /    A nd           | Version:  13
     \\/     M anipulation  |
\*---------------------------------------------------------------------------*/
FoamFile
{
    format      ascii;
    class       volScalarField;
    location    "0.0015";
    object      rho;
}
// * * * * * * * * * * * * * * * * * * * * * * * * * * * * * * * * * * * * * //

dimensions      [1 -3 0 0 0 0 0];

internalField   nonuniform List<scalar> 
33334
(
0.817343
0.81709
0.816709
0.816089
0.815175
0.813866
0.812126
0.810438
0.80711
0.802584
0.799646
0.795732
0.789308
0.784009
0.780265
0.775237
0.769346
0.765159
0.762609
0.758977
0.754693
0.751321
0.750243
0.751805
0.752945
0.749094
0.74468
0.742113
0.740718
0.740282
0.740245
0.74042
0.740872
0.741865
0.743622
0.746279
0.750101
0.75546
0.762621
0.771905
0.783718
0.79887
0.818051
0.842028
0.871153
0.905863
0.94705
0.996682
1.05628
1.13271
1.23577
1.33022
1.32295
0.983345
0.842404
0.837812
0.837779
0.837427
0.836861
0.836339
0.835873
0.83542
0.835208
0.83507
0.834973
0.834912
0.834885
0.834885
0.834907
0.83495
0.835009
0.835081
0.835164
0.835256
0.835356
0.835465
0.835582
0.835707
0.835841
0.835984
0.836133
0.836288
0.836446
0.836607
0.836771
0.836937
0.837107
0.83728
0.837457
0.837635
0.837816
0.837997
0.838179
0.83836
0.838542
0.838725
0.838908
0.839092
0.839277
0.839462
0.839648
0.839834
0.840019
0.840204
0.840388
0.840572
0.840755
0.840938
0.841119
0.841299
0.841481
0.841667
0.841863
0.842069
0.842279
0.842473
0.842625
0.842731
0.842807
0.842903
0.843161
0.844053
0.84616
0.850913
0.860823
0.880036
0.914711
0.973257
1.0659
1.20217
1.38358
1.59193
1.78281
1.91165
1.97394
1.9868
1.9879
1.98605
1.9834
1.98032
1.97744
1.97502
1.97289
1.97119
1.96988
1.96876
1.96763
1.96638
1.965
1.96354
1.96208
1.96065
1.9593
1.95801
1.95678
1.95558
1.95438
1.95316
1.95194
1.95074
1.94958
1.94846
1.94736
1.94624
1.94516
1.9442
0.81709
0.816867
0.816492
0.815914
0.815055
0.813856
0.812296
0.809832
0.80701
0.80487
0.800626
0.794774
0.79088
0.786739
0.780702
0.775241
0.771559
0.767775
0.763245
0.759595
0.757666
0.756553
0.754422
0.75014
0.744655
0.742574
0.742807
0.74272
0.742284
0.741964
0.742001
0.742452
0.743383
0.744931
0.747227
0.750378
0.754686
0.760479
0.768004
0.777563
0.789586
0.804771
0.823804
0.847432
0.876066
0.910504
0.951274
1.00023
1.06063
1.13861
1.24298
1.33082
1.31558
0.974364
0.840288
0.836187
0.836208
0.835935
0.835497
0.835165
0.834978
0.834941
0.834798
0.834676
0.8346
0.834563
0.834557
0.834578
0.834623
0.834689
0.834771
0.834865
0.83497
0.835083
0.835205
0.835333
0.835469
0.835612
0.835762
0.835919
0.83608
0.836245
0.836411
0.836579
0.836747
0.836916
0.837088
0.837263
0.837441
0.837622
0.837804
0.837987
0.83817
0.838353
0.838536
0.838719
0.838904
0.839088
0.839274
0.83946
0.839646
0.839832
0.840018
0.840203
0.840388
0.840572
0.840755
0.840938
0.841119
0.841299
0.841481
0.841667
0.841863
0.842069
0.842279
0.842473
0.842626
0.842731
0.842807
0.842903
0.843163
0.844051
0.84616
0.85091
0.860815
0.880018
0.914679
0.973206
1.06582
1.20208
1.38348
1.59183
1.78273
1.9116
1.97392
1.98681
1.98791
1.98605
1.98341
1.98033
1.97745
1.97502
1.9729
1.9712
1.96988
1.96876
1.96763
1.96638
1.965
1.96355
1.96208
1.96066
1.9593
1.95802
1.95679
1.95559
1.95438
1.95317
1.95194
1.95074
1.94958
1.94846
1.94736
1.94625
1.94517
1.9442
0.816709
0.816492
0.816053
0.815427
0.814503
0.813231
0.811503
0.809104
0.806881
0.803817
0.799353
0.795166
0.791146
0.786096
0.780694
0.776115
0.772061
0.767811
0.763767
0.760456
0.757779
0.755202
0.751936
0.748365
0.745851
0.74518
0.744746
0.744128
0.743507
0.743149
0.743133
0.743489
0.744239
0.745564
0.747617
0.750478
0.754456
0.759843
0.766904
0.775992
0.787585
0.802331
0.820903
0.844055
0.872342
0.906532
0.948264
0.998114
1.05902
1.13795
1.24515
1.33174
1.30598
0.959471
0.837633
0.834371
0.834487
0.834306
0.833969
0.833717
0.833555
0.833428
0.833314
0.833244
0.833217
0.833226
0.833266
0.833336
0.83343
0.833543
0.833672
0.833813
0.833965
0.834126
0.834293
0.834468
0.834649
0.834837
0.835032
0.835233
0.835439
0.835646
0.835855
0.836063
0.836272
0.836481
0.836691
0.836903
0.837114
0.837326
0.837538
0.837748
0.837956
0.838163
0.838367
0.83857
0.838772
0.838973
0.839174
0.839373
0.839571
0.839767
0.839962
0.840156
0.840347
0.840538
0.840727
0.840914
0.841099
0.841283
0.841467
0.841657
0.841854
0.842062
0.842274
0.842469
0.842623
0.842729
0.842805
0.842901
0.843162
0.844049
0.846154
0.850895
0.860787
0.87997
0.914604
0.973097
1.06568
1.20189
1.38328
1.59165
1.78261
1.91154
1.97391
1.98681
1.98791
1.98606
1.98342
1.98034
1.97746
1.97503
1.97291
1.9712
1.96989
1.96877
1.96764
1.96639
1.96501
1.96355
1.96209
1.96066
1.95931
1.95802
1.95679
1.95559
1.95439
1.95317
1.95195
1.95074
1.94958
1.94847
1.94736
1.94625
1.94517
1.9442
0.816089
0.815914
0.815427
0.814806
0.813889
0.81262
0.810895
0.808724
0.806189
0.802693
0.79867
0.794756
0.79019
0.784909
0.779941
0.775518
0.771134
0.766767
0.762947
0.759831
0.756933
0.753635
0.750299
0.747754
0.74645
0.745793
0.745116
0.744333
0.743599
0.743144
0.743021
0.743305
0.74395
0.74517
0.747111
0.749814
0.753534
0.758564
0.765228
0.773929
0.785184
0.799588
0.817868
0.840769
0.868908
0.903039
0.944583
0.994901
1.05644
1.13716
1.24752
1.33235
1.28968
0.939254
0.834044
0.831714
0.831908
0.831789
0.831521
0.831316
0.831183
0.831097
0.831061
0.83107
0.831118
0.831202
0.831318
0.83146
0.831624
0.831805
0.832001
0.832207
0.832422
0.832644
0.832872
0.833106
0.833344
0.833588
0.833838
0.834092
0.834349
0.834608
0.834866
0.835124
0.83538
0.835635
0.835891
0.836146
0.8364
0.836654
0.836906
0.837155
0.837402
0.837645
0.837885
0.838122
0.838357
0.83859
0.83882
0.839048
0.839274
0.839496
0.839716
0.839932
0.840146
0.840356
0.840564
0.840769
0.84097
0.841168
0.841366
0.841567
0.841775
0.841993
0.842214
0.842416
0.842578
0.842691
0.842773
0.842875
0.843141
0.84403
0.846135
0.850875
0.860761
0.879932
0.914544
0.973007
1.06555
1.20172
1.38308
1.59146
1.78248
1.91148
1.9739
1.98681
1.98792
1.98607
1.98342
1.98034
1.97746
1.97504
1.97291
1.97121
1.96989
1.96877
1.96764
1.96639
1.96501
1.96355
1.96209
1.96066
1.95931
1.95802
1.9568
1.95559
1.95439
1.95317
1.95195
1.95075
1.94959
1.94847
1.94736
1.94625
1.94517
1.9442
0.815175
0.815055
0.814503
0.813889
0.812971
0.811696
0.809991
0.807845
0.805056
0.801639
0.797921
0.79374
0.788849
0.783775
0.779038
0.774439
0.769825
0.765615
0.762013
0.758799
0.755512
0.752236
0.749589
0.747898
0.746891
0.746019
0.745052
0.744035
0.743148
0.742549
0.742295
0.74242
0.742873
0.743849
0.745512
0.747883
0.751237
0.755865
0.76215
0.770538
0.781564
0.795773
0.813959
0.836758
0.864858
0.898974
0.940332
0.991023
1.05385
1.1369
1.25085
1.33378
1.26489
0.915907
0.829742
0.828271
0.828517
0.828439
0.828238
0.828106
0.828049
0.828048
0.828095
0.828187
0.828317
0.828481
0.828674
0.828891
0.829128
0.829381
0.829646
0.829922
0.830205
0.830493
0.830787
0.831084
0.831386
0.831691
0.832002
0.832316
0.832632
0.832949
0.833264
0.833577
0.833888
0.834198
0.834506
0.834813
0.835119
0.835423
0.835725
0.836024
0.836318
0.836609
0.836896
0.837179
0.837459
0.837736
0.838009
0.83828
0.838546
0.838809
0.839068
0.839322
0.839572
0.839819
0.840061
0.840299
0.840532
0.840761
0.840988
0.841217
0.841452
0.841696
0.841941
0.842167
0.842352
0.842487
0.842591
0.842715
0.843002
0.843915
0.846033
0.850791
0.860692
0.879872
0.914486
0.97294
1.06546
1.20162
1.38296
1.59135
1.7824
1.91145
1.97389
1.98681
1.98792
1.98607
1.98342
1.98035
1.97746
1.97504
1.97291
1.97121
1.96989
1.96877
1.96765
1.96639
1.96501
1.96356
1.96209
1.96067
1.95931
1.95803
1.9568
1.95559
1.95439
1.95317
1.95195
1.95075
1.94959
1.94847
1.94737
1.94625
1.94517
1.9442
0.813866
0.813856
0.813231
0.81262
0.811696
0.810425
0.808731
0.806539
0.803723
0.800424
0.796659
0.792227
0.787359
0.782491
0.777702
0.772904
0.76832
0.764279
0.760706
0.757322
0.754045
0.751238
0.749173
0.747746
0.746586
0.745421
0.744163
0.742901
0.741822
0.741041
0.740611
0.740508
0.740726
0.741418
0.742785
0.744858
0.747933
0.752287
0.758352
0.766578
0.777482
0.791588
0.809704
0.832375
0.860425
0.894494
0.936028
0.98704
1.05199
1.1382
1.25734
1.33265
1.23172
0.891094
0.824903
0.824139
0.824438
0.824413
0.824304
0.824267
0.8243
0.824386
0.824517
0.824688
0.824897
0.825136
0.825403
0.825693
0.826
0.826323
0.826657
0.826999
0.827348
0.827701
0.828058
0.828419
0.828782
0.82915
0.829521
0.829895
0.83027
0.830645
0.831018
0.831389
0.831756
0.832122
0.832486
0.832848
0.833209
0.833568
0.833923
0.834275
0.834623
0.834965
0.835304
0.835638
0.835969
0.836296
0.836619
0.836938
0.837253
0.837564
0.837869
0.83817
0.838466
0.838757
0.839043
0.839325
0.839601
0.839872
0.840141
0.840412
0.840689
0.840974
0.84126
0.841528
0.841755
0.841933
0.842081
0.842251
0.842583
0.843555
0.84571
0.850516
0.860466
0.879695
0.914353
0.972842
1.06539
1.20155
1.38291
1.5913
1.78237
1.91143
1.97389
1.98681
1.98792
1.98607
1.98343
1.98035
1.97747
1.97504
1.97291
1.97121
1.96989
1.96878
1.96765
1.96639
1.96501
1.96356
1.96209
1.96067
1.95931
1.95803
1.9568
1.95559
1.95439
1.95317
1.95195
1.95075
1.94959
1.94847
1.94737
1.94625
1.94517
1.9442
0.812126
0.812296
0.811503
0.810895
0.809991
0.808731
0.807029
0.804812
0.802037
0.798737
0.794835
0.790362
0.785612
0.780776
0.77587
0.771044
0.7666
0.762627
0.758995
0.755602
0.752593
0.750173
0.748307
0.746753
0.745249
0.743731
0.742195
0.740737
0.739492
0.738544
0.737913
0.737616
0.737622
0.738089
0.739245
0.741121
0.744025
0.74822
0.754159
0.762277
0.773046
0.787024
0.804962
0.827503
0.855487
0.889653
0.931557
0.983725
1.05071
1.14164
1.26404
1.3325
1.18864
0.86587
0.819666
0.819444
0.819794
0.819831
0.81981
0.819865
0.819985
0.820152
0.820359
0.820604
0.820884
0.821195
0.82153
0.821887
0.822261
0.822648
0.823045
0.823451
0.823862
0.824276
0.824694
0.825115
0.825538
0.825964
0.826393
0.826825
0.827258
0.82769
0.82812
0.828547
0.828971
0.829393
0.829812
0.83023
0.830645
0.831058
0.831468
0.831874
0.832276
0.832672
0.833064
0.833451
0.833834
0.834213
0.834588
0.834959
0.835325
0.835686
0.836042
0.836392
0.836738
0.837078
0.837414
0.837745
0.838071
0.838392
0.838712
0.839034
0.839364
0.839703
0.840045
0.840372
0.840658
0.8409
0.841114
0.841356
0.841756
0.842818
0.845044
0.849931
0.859963
0.879272
0.914012
0.972583
1.06521
1.20144
1.38284
1.59127
1.78235
1.91142
1.97389
1.98681
1.98792
1.98607
1.98343
1.98035
1.97747
1.97504
1.97291
1.97121
1.9699
1.96878
1.96765
1.9664
1.96501
1.96356
1.96209
1.96067
1.95931
1.95803
1.9568
1.95559
1.95439
1.95317
1.95195
1.95075
1.94959
1.94847
1.94737
1.94625
1.94517
1.9442
0.810438
0.809832
0.809104
0.808724
0.807845
0.806539
0.804812
0.8026
0.799841
0.79649
0.792532
0.788106
0.783398
0.778504
0.77356
0.768819
0.76447
0.760494
0.756849
0.753583
0.750793
0.74847
0.746458
0.744571
0.742732
0.740969
0.739278
0.737703
0.736343
0.735271
0.734499
0.734049
0.733904
0.734237
0.735258
0.736993
0.73976
0.743825
0.749627
0.757601
0.768172
0.781992
0.799716
0.822229
0.850176
0.884684
0.927358
0.980766
1.05073
1.14736
1.2728
1.32789
1.13497
0.843473
0.81412
0.814272
0.814675
0.814767
0.814829
0.814966
0.815164
0.815402
0.815679
0.815992
0.816338
0.816713
0.817111
0.817529
0.817963
0.818409
0.818865
0.819328
0.819796
0.820267
0.820741
0.821217
0.821695
0.822176
0.822659
0.823145
0.823632
0.824117
0.824601
0.825081
0.825558
0.826032
0.826504
0.826974
0.827442
0.827908
0.82837
0.828828
0.829281
0.829729
0.830173
0.830611
0.831046
0.831476
0.831902
0.832323
0.83274
0.833151
0.833558
0.833959
0.834355
0.834748
0.835135
0.835519
0.835899
0.836277
0.836654
0.837037
0.83743
0.837835
0.838247
0.838647
0.839011
0.839333
0.839634
0.839972
0.840459
0.841635
0.843968
0.848965
0.859109
0.878531
0.913381
0.972062
1.0648
1.20115
1.38267
1.59119
1.78232
1.91142
1.97389
1.98681
1.98793
1.98607
1.98343
1.98035
1.97747
1.97504
1.97292
1.97121
1.9699
1.96878
1.96765
1.9664
1.96501
1.96356
1.96209
1.96067
1.95931
1.95803
1.9568
1.95559
1.95439
1.95317
1.95195
1.95075
1.94959
1.94847
1.94737
1.94625
1.94517
1.9442
0.80711
0.80701
0.806881
0.806189
0.805056
0.803723
0.802037
0.799841
0.797062
0.793675
0.789725
0.785329
0.780599
0.775671
0.770766
0.766103
0.761778
0.757798
0.7542
0.751036
0.748279
0.745809
0.743519
0.741366
0.739356
0.737496
0.735747
0.734114
0.732682
0.731523
0.730644
0.73007
0.729813
0.730046
0.730952
0.732545
0.735156
0.739077
0.744703
0.752494
0.762844
0.776533
0.794128
0.816717
0.844812
0.879901
0.923493
0.978793
1.0525
1.15587
1.2783
1.32569
1.06789
0.825097
0.808303
0.808699
0.809135
0.809281
0.809421
0.809633
0.809899
0.810204
0.810544
0.810919
0.811325
0.811757
0.812212
0.812685
0.813173
0.813673
0.814182
0.814697
0.815216
0.815738
0.816262
0.816787
0.817315
0.817845
0.818378
0.818912
0.819448
0.819982
0.820513
0.821041
0.821566
0.822089
0.822609
0.823127
0.823643
0.824156
0.824666
0.825172
0.825673
0.826169
0.826661
0.827147
0.827629
0.828107
0.828581
0.82905
0.829514
0.829974
0.83043
0.83088
0.831328
0.831772
0.832214
0.832653
0.833092
0.83353
0.833973
0.834424
0.83489
0.835372
0.835867
0.836354
0.836812
0.837231
0.837634
0.838086
0.838692
0.839973
0.842451
0.847582
0.857864
0.877418
0.912399
0.971213
1.06409
1.20058
1.38225
1.59093
1.78221
1.91139
1.97389
1.98682
1.98793
1.98607
1.98343
1.98035
1.97747
1.97504
1.97292
1.97121
1.9699
1.96878
1.96765
1.9664
1.96501
1.96356
1.96209
1.96067
1.95931
1.95803
1.9568
1.95559
1.95439
1.95317
1.95195
1.95075
1.94959
1.94847
1.94737
1.94625
1.94517
1.9442
0.802584
0.80487
0.803817
0.802693
0.801639
0.800424
0.798737
0.79649
0.793675
0.790289
0.786358
0.781957
0.777204
0.772289
0.767435
0.762803
0.758476
0.754514
0.750961
0.747798
0.744939
0.742278
0.739809
0.737562
0.735518
0.733643
0.731874
0.730202
0.728709
0.727467
0.726478
0.72578
0.725416
0.72554
0.726307
0.727745
0.730185
0.73396
0.739399
0.747017
0.757194
0.770823
0.788436
0.811229
0.83961
0.875694
0.920365
0.978207
1.05615
1.16745
1.2856
1.31042
0.997705
0.810655
0.802235
0.802788
0.803237
0.803437
0.803651
0.803934
0.804262
0.804626
0.805024
0.805455
0.805915
0.806399
0.806904
0.807427
0.807964
0.808511
0.809066
0.809627
0.810192
0.810759
0.811327
0.811897
0.812468
0.813042
0.813617
0.814195
0.814773
0.815349
0.815923
0.816494
0.817062
0.817626
0.818189
0.818749
0.819308
0.819864
0.820416
0.820965
0.821508
0.822047
0.82258
0.82311
0.823634
0.824155
0.824672
0.825185
0.825694
0.826199
0.8267
0.827199
0.827696
0.828193
0.82869
0.829188
0.829689
0.830194
0.830708
0.831236
0.831783
0.832352
0.832941
0.833527
0.834092
0.834624
0.835142
0.835726
0.836473
0.837854
0.840487
0.845763
0.856197
0.8759
0.911028
0.969986
1.06301
1.19965
1.3815
1.59038
1.78188
1.91125
1.97385
1.98681
1.98793
1.98607
1.98343
1.98035
1.97747
1.97504
1.97292
1.97121
1.9699
1.96878
1.96765
1.9664
1.96501
1.96356
1.96209
1.96067
1.95931
1.95803
1.9568
1.95559
1.95439
1.95317
1.95195
1.95075
1.94959
1.94847
1.94737
1.94625
1.94517
1.9442
0.799646
0.800626
0.799353
0.79867
0.797921
0.796659
0.794835
0.792532
0.789725
0.786358
0.782428
0.778011
0.773261
0.768378
0.763552
0.75893
0.754614
0.75068
0.747136
0.743922
0.740965
0.73822
0.73572
0.733488
0.731461
0.729578
0.727774
0.726045
0.724479
0.723138
0.722029
0.721206
0.720744
0.720748
0.721354
0.722645
0.724931
0.728579
0.73386
0.741359
0.751464
0.765117
0.782896
0.806027
0.83496
0.87214
0.918519
0.979243
1.06208
1.18307
1.29357
1.27645
0.930463
0.799433
0.795941
0.796596
0.797047
0.797299
0.797585
0.797932
0.798317
0.798736
0.799187
0.799668
0.800176
0.800707
0.801257
0.801824
0.802403
0.802992
0.803588
0.804189
0.804793
0.805399
0.806006
0.806614
0.807224
0.807835
0.808448
0.809062
0.809677
0.81029
0.810901
0.811508
0.812113
0.812714
0.813313
0.81391
0.814505
0.815097
0.815686
0.816271
0.816852
0.817427
0.817997
0.818564
0.819126
0.819684
0.820239
0.820791
0.82134
0.821888
0.822433
0.822979
0.823526
0.824075
0.824629
0.825189
0.825756
0.826333
0.826924
0.827536
0.828173
0.828838
0.829529
0.830225
0.830907
0.831562
0.832204
0.832927
0.833824
0.835314
0.838097
0.843525
0.854113
0.873973
0.909254
0.968362
1.06153
1.19832
1.38032
1.58942
1.78121
1.91088
1.97372
1.98679
1.98792
1.98607
1.98343
1.98035
1.97747
1.97504
1.97292
1.97121
1.9699
1.96878
1.96765
1.9664
1.96501
1.96356
1.96209
1.96067
1.95931
1.95803
1.9568
1.95559
1.95439
1.95317
1.95195
1.95075
1.94959
1.94847
1.94737
1.94625
1.94517
1.9442
0.795732
0.794774
0.795166
0.794756
0.79374
0.792227
0.790362
0.788106
0.785329
0.781957
0.778011
0.773595
0.768865
0.764009
0.759203
0.754604
0.750325
0.746421
0.742881
0.739642
0.736667
0.733937
0.731478
0.72928
0.727252
0.725328
0.723457
0.721651
0.720001
0.71856
0.717341
0.716411
0.715848
0.715731
0.716188
0.717358
0.719534
0.723085
0.728267
0.735716
0.74586
0.759626
0.777708
0.801306
0.831133
0.869404
0.91798
0.982416
1.07182
1.20223
1.29912
1.21988
0.871535
0.790428
0.789456
0.790172
0.79062
0.790927
0.791282
0.791687
0.792125
0.792593
0.793091
0.793617
0.794169
0.794741
0.795331
0.795936
0.796553
0.797178
0.79781
0.798446
0.799085
0.799724
0.800364
0.801005
0.801647
0.80229
0.802935
0.803581
0.804227
0.804872
0.805514
0.806152
0.806787
0.80742
0.80805
0.808677
0.809303
0.809926
0.810546
0.811162
0.811773
0.812379
0.812981
0.813579
0.814173
0.814764
0.815353
0.815941
0.816528
0.817115
0.817704
0.818295
0.818892
0.819497
0.82011
0.820735
0.821373
0.822028
0.822702
0.823403
0.824137
0.824904
0.825705
0.826516
0.82732
0.828104
0.828874
0.829735
0.830785
0.832394
0.835321
0.840899
0.851639
0.871654
0.90709
0.966347
1.05965
1.19657
1.3787
1.58797
1.78006
1.91009
1.97336
1.9867
1.98786
1.98606
1.98343
1.98035
1.97747
1.97504
1.97292
1.97121
1.9699
1.96878
1.96765
1.9664
1.96501
1.96356
1.96209
1.96067
1.95931
1.95803
1.9568
1.95559
1.95439
1.95317
1.95195
1.95075
1.94959
1.94847
1.94737
1.94625
1.94517
1.9442
0.789308
0.79088
0.791146
0.79019
0.788849
0.787359
0.785612
0.783398
0.780599
0.777204
0.773261
0.768865
0.76416
0.75933
0.75456
0.750014
0.745794
0.741936
0.738427
0.735215
0.732278
0.729599
0.727181
0.724989
0.722918
0.720912
0.71895
0.717063
0.715339
0.713818
0.712512
0.711491
0.710831
0.710602
0.710938
0.712026
0.71413
0.717609
0.722755
0.730218
0.740491
0.754485
0.773044
0.797263
0.828355
0.867922
0.919141
0.988136
1.0868
1.22425
1.2998
1.14133
0.824768
0.78268
0.782816
0.78356
0.784008
0.784372
0.78479
0.785249
0.785735
0.786248
0.786789
0.787356
0.787946
0.788555
0.78918
0.789819
0.790469
0.791126
0.791789
0.792455
0.793122
0.793791
0.794459
0.795128
0.795797
0.796468
0.797139
0.797812
0.798484
0.799155
0.799823
0.800488
0.801149
0.801807
0.802462
0.803116
0.803767
0.804416
0.805061
0.805702
0.806339
0.806971
0.807599
0.808224
0.808846
0.809466
0.810086
0.810707
0.81133
0.811956
0.812588
0.813227
0.813876
0.814538
0.815215
0.815909
0.816623
0.817359
0.818122
0.818918
0.819753
0.820627
0.821541
0.82247
0.823399
0.824309
0.825208
0.826202
0.827402
0.829137
0.832199
0.837923
0.848812
0.868978
0.904564
0.963966
1.0574
1.19441
1.37661
1.58598
1.77833
1.90873
1.97259
1.98647
1.98771
1.98599
1.98342
1.98036
1.97747
1.97504
1.97292
1.97121
1.9699
1.96878
1.96765
1.9664
1.96501
1.96356
1.96209
1.96067
1.95931
1.95803
1.9568
1.95559
1.95439
1.95317
1.95195
1.95075
1.94959
1.94847
1.94737
1.94625
1.94517
1.9442
0.784009
0.786739
0.786096
0.784909
0.783775
0.782491
0.780776
0.778504
0.775671
0.772289
0.768378
0.764009
0.75933
0.754541
0.749836
0.745368
0.741226
0.737429
0.733971
0.730801
0.727909
0.725269
0.722864
0.720642
0.718496
0.716387
0.714336
0.712392
0.710622
0.709046
0.707669
0.706562
0.705799
0.705474
0.705731
0.706762
0.708813
0.712245
0.717414
0.724958
0.735443
0.749822
0.769053
0.794113
0.826687
0.86803
0.922532
0.997168
1.10725
1.24351
1.29641
1.04068
0.793292
0.775476
0.776059
0.776794
0.777252
0.777677
0.778152
0.77866
0.779191
0.779746
0.780325
0.780928
0.781552
0.782194
0.782851
0.78352
0.784198
0.784882
0.785572
0.786263
0.786956
0.787649
0.788342
0.789034
0.789727
0.79042
0.791114
0.791808
0.792503
0.793196
0.793885
0.794571
0.795253
0.795932
0.796609
0.797283
0.797956
0.798625
0.799291
0.799953
0.800611
0.801264
0.801915
0.802563
0.80321
0.803857
0.804506
0.805159
0.805818
0.806484
0.80716
0.807849
0.808554
0.809277
0.810021
0.810789
0.811583
0.812406
0.813261
0.814156
0.815094
0.816078
0.817105
0.818151
0.819202
0.820237
0.821263
0.822384
0.823724
0.825588
0.828776
0.834639
0.845672
0.865985
0.901718
0.961259
1.05481
1.1919
1.3741
1.58346
1.77598
1.90666
1.97117
1.98599
1.98736
1.98581
1.98337
1.98035
1.97748
1.97505
1.97292
1.97121
1.9699
1.96878
1.96765
1.9664
1.96501
1.96356
1.96209
1.96067
1.95931
1.95803
1.9568
1.9556
1.95439
1.95317
1.95195
1.95075
1.94959
1.94847
1.94737
1.94625
1.94517
1.9442
0.780265
0.780702
0.780694
0.779941
0.779038
0.777702
0.77587
0.77356
0.770766
0.767435
0.763552
0.759203
0.75456
0.749836
0.745218
0.740843
0.736785
0.733052
0.729645
0.726513
0.723655
0.721035
0.718621
0.71634
0.714092
0.71188
0.709762
0.707785
0.705986
0.704357
0.7029
0.701696
0.700825
0.700427
0.700647
0.701634
0.703648
0.707057
0.712296
0.719984
0.730796
0.745701
0.765848
0.79197
0.826285
0.870131
0.929059
1.01027
1.13311
1.26071
1.27057
0.936987
0.774388
0.768433
0.76921
0.769908
0.770392
0.770877
0.771405
0.771957
0.772529
0.773121
0.773736
0.774372
0.775027
0.775698
0.776382
0.777077
0.77778
0.778488
0.779201
0.779915
0.780629
0.781343
0.782056
0.782768
0.783479
0.784191
0.784904
0.785617
0.78633
0.78704
0.787747
0.78845
0.78915
0.789846
0.79054
0.791231
0.79192
0.792606
0.793288
0.793967
0.794643
0.795315
0.795984
0.796653
0.797324
0.797997
0.798675
0.799361
0.800057
0.800766
0.801489
0.802232
0.802995
0.803784
0.8046
0.805446
0.806324
0.807236
0.808187
0.809182
0.810225
0.811318
0.812456
0.813617
0.814785
0.815941
0.817089
0.818331
0.819799
0.821787
0.825093
0.831087
0.842257
0.862713
0.898593
0.958276
1.05194
1.18908
1.37122
1.58044
1.77301
1.90384
1.96884
1.98514
1.98669
1.98542
1.9832
1.9803
1.97747
1.97505
1.97293
1.97122
1.9699
1.96878
1.96765
1.9664
1.96501
1.96356
1.96209
1.96067
1.95931
1.95803
1.9568
1.9556
1.95439
1.95317
1.95195
1.95075
1.94959
1.94847
1.94737
1.94625
1.94517
1.9442
0.775237
0.775241
0.776115
0.775518
0.774439
0.772904
0.771044
0.768819
0.766103
0.762803
0.75893
0.754604
0.750014
0.745368
0.740843
0.736552
0.732564
0.728876
0.7255
0.722394
0.719559
0.716945
0.714503
0.712141
0.709786
0.70749
0.705333
0.703337
0.7015
0.699799
0.698247
0.696944
0.695982
0.695543
0.695752
0.6967
0.698688
0.70211
0.707457
0.715395
0.726658
0.742341
0.763471
0.791045
0.827324
0.874335
0.938638
1.02896
1.16505
1.27374
1.2029
0.850788
0.762684
0.761417
0.762279
0.762935
0.763456
0.764
0.764576
0.76517
0.765779
0.766407
0.767053
0.767719
0.768401
0.769098
0.769807
0.770524
0.771249
0.771978
0.77271
0.773443
0.774176
0.774907
0.775637
0.776366
0.777093
0.777821
0.778549
0.779277
0.780004
0.780729
0.78145
0.782168
0.782881
0.783591
0.784298
0.785002
0.785704
0.786403
0.787099
0.787793
0.788483
0.789171
0.789859
0.790548
0.791241
0.791941
0.79265
0.793371
0.794107
0.794861
0.795636
0.796435
0.797263
0.798121
0.799013
0.79994
0.800905
0.80191
0.802957
0.804052
0.805199
0.806398
0.807644
0.808916
0.810194
0.811464
0.812729
0.814083
0.815668
0.817772
0.82119
0.827305
0.838608
0.859205
0.895235
0.955066
1.04885
1.18602
1.36805
1.57698
1.76945
1.90029
1.9654
1.98374
1.98559
1.9847
1.98283
1.98014
1.97742
1.97505
1.97293
1.97122
1.9699
1.96878
1.96765
1.9664
1.96501
1.96356
1.96209
1.96067
1.95931
1.95803
1.9568
1.9556
1.95439
1.95317
1.95195
1.95075
1.94959
1.94847
1.94737
1.94625
1.94517
1.9442
0.769346
0.771559
0.772061
0.771134
0.769825
0.76832
0.7666
0.76447
0.761778
0.758476
0.754614
0.750325
0.745794
0.741226
0.736785
0.732564
0.728627
0.724971
0.721618
0.718533
0.715712
0.713084
0.710583
0.708108
0.70565
0.70329
0.701107
0.699084
0.697183
0.695385
0.69373
0.692345
0.691328
0.690882
0.691095
0.692014
0.693985
0.697455
0.702977
0.711275
0.723239
0.739805
0.762229
0.791705
0.830297
0.881563
0.951692
1.05407
1.20196
1.27574
1.09743
0.790375
0.754177
0.754407
0.755275
0.755903
0.756471
0.757072
0.757692
0.758323
0.758967
0.759626
0.760303
0.760995
0.761702
0.762422
0.763152
0.76389
0.764634
0.765381
0.76613
0.766879
0.767627
0.768373
0.769117
0.76986
0.770601
0.771341
0.772081
0.772821
0.77356
0.774297
0.775029
0.775758
0.776482
0.777202
0.777919
0.778634
0.779346
0.780056
0.780764
0.781469
0.782172
0.782876
0.783581
0.784291
0.785009
0.785737
0.786478
0.787238
0.788017
0.788821
0.789652
0.790513
0.791409
0.792341
0.793312
0.794324
0.795377
0.796475
0.797618
0.798812
0.80006
0.801362
0.802712
0.804088
0.805469
0.806844
0.808218
0.809676
0.811369
0.813579
0.817099
0.823327
0.834758
0.855498
0.891686
0.951679
1.0456
1.1828
1.36468
1.57316
1.76534
1.89613
1.96083
1.98138
1.98399
1.98359
1.98215
1.97978
1.97726
1.975
1.97293
1.97123
1.96991
1.96879
1.96765
1.9664
1.96501
1.96356
1.96209
1.96067
1.95931
1.95803
1.9568
1.9556
1.95439
1.95317
1.95195
1.95075
1.94959
1.94847
1.94737
1.94625
1.94517
1.9442
0.765159
0.767775
0.767811
0.766767
0.765615
0.764279
0.762627
0.760494
0.757798
0.754514
0.75068
0.746421
0.741936
0.737429
0.733052
0.728876
0.724971
0.721337
0.718004
0.71494
0.712119
0.709448
0.706853
0.704251
0.701708
0.699299
0.697083
0.695013
0.693025
0.691126
0.689387
0.687955
0.686927
0.686498
0.686708
0.687593
0.689555
0.693119
0.698945
0.707786
0.720671
0.738406
0.762378
0.793879
0.835836
0.891663
0.969932
1.08795
1.2303
1.26612
0.963551
0.757537
0.746724
0.7474
0.748212
0.748835
0.74946
0.750112
0.750772
0.751437
0.752113
0.752802
0.753505
0.754222
0.754952
0.755692
0.756441
0.757197
0.757957
0.75872
0.759484
0.760246
0.761007
0.761766
0.762522
0.763276
0.764027
0.764778
0.765528
0.766278
0.767026
0.767772
0.768513
0.76925
0.769982
0.770711
0.771436
0.772158
0.772879
0.773597
0.774314
0.775031
0.775747
0.776466
0.77719
0.777922
0.778666
0.779426
0.780204
0.781006
0.781834
0.782692
0.783583
0.78451
0.785478
0.786487
0.78754
0.788637
0.78978
0.79097
0.792208
0.793497
0.794843
0.796243
0.79769
0.799165
0.800641
0.802112
0.803586
0.80514
0.80693
0.809236
0.812851
0.819186
0.830742
0.851628
0.887985
0.948162
1.04224
1.17949
1.36118
1.56907
1.76072
1.89145
1.95542
1.97735
1.98188
1.98205
1.98106
1.97911
1.9769
1.97485
1.97289
1.97123
1.96992
1.96879
1.96766
1.9664
1.96502
1.96356
1.96209
1.96067
1.95931
1.95803
1.9568
1.9556
1.95439
1.95317
1.95195
1.95075
1.94959
1.94847
1.94737
1.94625
1.94517
1.9442
0.762609
0.763245
0.763767
0.762947
0.762013
0.760706
0.758995
0.756849
0.7542
0.750961
0.747136
0.742881
0.738427
0.733971
0.729645
0.7255
0.721618
0.718004
0.714687
0.711623
0.708756
0.706001
0.703277
0.700555
0.69794
0.695489
0.693226
0.691093
0.689016
0.687036
0.685245
0.683784
0.682755
0.682337
0.682512
0.683358
0.685348
0.689131
0.695475
0.705029
0.719118
0.738096
0.764115
0.798314
0.843949
0.905754
0.994248
1.13083
1.25149
1.20255
0.847215
0.741718
0.739533
0.740376
0.741112
0.741757
0.742438
0.743137
0.743833
0.74453
0.745235
0.745951
0.746679
0.747418
0.748168
0.748927
0.749693
0.750465
0.751239
0.752015
0.752792
0.753566
0.754338
0.755107
0.755873
0.756636
0.757396
0.758155
0.758913
0.75967
0.760426
0.761178
0.761926
0.762669
0.763407
0.764141
0.764872
0.765601
0.766328
0.767055
0.767781
0.768508
0.769239
0.769975
0.770719
0.771476
0.77225
0.773045
0.773864
0.774712
0.775593
0.77651
0.777466
0.778464
0.779506
0.780594
0.78173
0.782914
0.784146
0.785426
0.786755
0.788136
0.789574
0.791066
0.792605
0.79417
0.795734
0.797293
0.798858
0.800498
0.802377
0.804769
0.808471
0.814908
0.826589
0.847629
0.884173
0.944561
1.03883
1.17615
1.35764
1.56481
1.75563
1.88627
1.94956
1.97178
1.97854
1.98003
1.97952
1.97806
1.97624
1.97449
1.97274
1.97118
1.96991
1.9688
1.96767
1.96641
1.96502
1.96356
1.96209
1.96067
1.95931
1.95803
1.9568
1.9556
1.95439
1.95317
1.95195
1.95075
1.94959
1.94847
1.94737
1.94625
1.94517
1.9442
0.758977
0.759595
0.760456
0.759831
0.758799
0.757322
0.755602
0.753583
0.751036
0.747798
0.743922
0.739642
0.735215
0.730801
0.726513
0.722394
0.718533
0.71494
0.711623
0.708526
0.705575
0.70269
0.699824
0.697011
0.694339
0.69184
0.689518
0.687312
0.68516
0.683122
0.681298
0.679805
0.678762
0.678333
0.678446
0.679286
0.681428
0.685589
0.692709
0.703215
0.718548
0.739371
0.767473
0.805361
0.855225
0.924881
1.02718
1.17952
1.2578
1.07944
0.769975
0.732454
0.732443
0.733316
0.733999
0.734686
0.735421
0.73616
0.736889
0.737616
0.738348
0.739089
0.739839
0.740598
0.741366
0.742142
0.742923
0.743709
0.744496
0.745284
0.74607
0.746855
0.747636
0.748413
0.749187
0.749957
0.750725
0.75149
0.752254
0.753017
0.753778
0.754535
0.755287
0.756035
0.756777
0.757516
0.758252
0.758985
0.759719
0.760452
0.761188
0.761928
0.762673
0.763428
0.764196
0.764982
0.76579
0.766624
0.767489
0.768389
0.769328
0.770308
0.771332
0.772403
0.773522
0.774691
0.77591
0.777179
0.778498
0.779865
0.781282
0.782751
0.784275
0.785852
0.787476
0.789125
0.790769
0.792406
0.794052
0.795772
0.79773
0.800202
0.803983
0.810518
0.822326
0.84353
0.880282
0.940915
1.03542
1.17285
1.35412
1.56048
1.75017
1.8806
1.94337
1.9653
1.97359
1.97698
1.97739
1.97655
1.97521
1.97384
1.97241
1.97103
1.96986
1.9688
1.96768
1.96642
1.96503
1.96356
1.96209
1.96067
1.95931
1.95803
1.9568
1.9556
1.95439
1.95317
1.95195
1.95075
1.94959
1.94847
1.94737
1.94625
1.94517
1.9442
0.754693
0.757666
0.757779
0.756933
0.755512
0.754045
0.752593
0.750793
0.748279
0.744939
0.740965
0.736667
0.732278
0.727909
0.723655
0.719559
0.715712
0.712119
0.708756
0.705575
0.702492
0.699458
0.696478
0.693602
0.69089
0.688342
0.685955
0.683676
0.681456
0.679374
0.677523
0.675997
0.674926
0.67446
0.674514
0.675442
0.677902
0.682727
0.690743
0.702494
0.719224
0.742295
0.773159
0.815119
0.870751
0.950302
1.07181
1.21837
1.2413
0.921278
0.733827
0.724976
0.725409
0.726226
0.726896
0.727636
0.728418
0.729193
0.729953
0.730706
0.731463
0.732226
0.732997
0.733775
0.734559
0.73535
0.736145
0.736942
0.73774
0.738538
0.739334
0.740127
0.740915