/*--------------------------------*- C++ -*----------------------------------*\
  =========                 |
  \\      /  F ield         | OpenFOAM: The Open Source CFD Toolbox
   \\    /   O peration     | Website:  https://openfoam.org
    \\  /    A nd           | Version:  13
     \\/     M anipulation  |
\*---------------------------------------------------------------------------*/
FoamFile
{
    format      ascii;
    class       volScalarField;
    location    "0.0015";
    object      T;
}
// * * * * * * * * * * * * * * * * * * * * * * * * * * * * * * * * * * * * * //

dimensions      [0 0 0 1 0 0 0];

internalField   nonuniform List<scalar> 
33334
(
2904.26
2904.04
2903.69
2903.15
2902.35
2901.21
2899.71
2898.26
2895.43
2891.65
2889.39
2886.45
2881.6
2878.05
2876.14
2873.36
2870.26
2869.02
2869.23
2868.38
2866.77
2865.76
2866.63
2869.96
2872.22
2869.34
2865.41
2862.67
2860.56
2858.9
2857.43
2856.1
2854.99
2854.55
2855.1
2857.09
2860.74
2866.27
2873.99
2884.26
2897.33
2913.68
2933.67
2957.7
2985.79
3018.06
3054.48
3095.66
3141.87
3194.25
3229.52
2853.72
1651.72
1106.19
1039.56
1032.91
1027.73
1022.46
1017.41
1012.65
1008.13
1003.84
999.826
996.022
992.396
988.935
985.627
982.458
979.419
976.497
973.686
970.978
968.365
965.842
963.403
961.043
958.758
956.544
954.398
952.316
950.294
948.329
946.419
944.559
942.749
940.985
939.265
937.589
935.954
934.358
932.8
931.278
929.789
928.334
926.909
925.516
924.152
922.817
921.51
920.23
918.975
917.747
916.542
915.362
914.204
913.068
911.954
910.862
909.791
908.741
907.708
906.688
905.676
904.67
903.677
902.717
901.812
900.978
900.193
899.373
898.352
896.819
893.964
888.359
877.536
857.876
825.047
775.403
708.299
628.358
545.869
473.77
421.724
391.995
379.742
376.034
375.38
375.283
375.351
375.486
375.604
375.63
375.601
375.507
375.349
375.16
374.978
374.827
374.706
374.607
374.515
374.422
374.323
374.218
374.109
374.001
373.896
373.797
373.706
373.623
373.549
373.478
373.407
373.331
373.245
373.144
2904.04
2903.84
2903.5
2902.99
2902.24
2901.2
2899.85
2897.74
2895.36
2893.63
2890.23
2885.65
2883.02
2880.45
2876.54
2873.5
2872.34
2871.28
2869.7
2868.86
2869.36
2870.49
2870.58
2868.55
2864.68
2863.34
2863.7
2863.37
2862.16
2860.57
2859.16
2858.12
2857.48
2857.53
2858.52
2860.97
2865.03
2870.91
2878.92
2889.38
2902.55
2918.84
2938.59
2962.2
2989.77
3021.65
3057.64
3098.3
3144.86
3198.09
3232.76
2829.41
1630.73
1101.45
1038.84
1032.33
1027.17
1021.93
1016.93
1012.23
1007.82
1003.67
999.68
995.882
992.265
988.813
985.512
982.352
979.319
976.406
973.603
970.902
968.298
965.782
963.35
960.997
958.719
956.511
954.37
952.292
950.275
948.314
946.406
944.548
942.739
940.976
939.258
937.582
935.948
934.353
932.795
931.273
929.785
928.33
926.906
925.513
924.149
922.815
921.508
920.228
918.974
917.745
916.541
915.36
914.202
913.067
911.953
910.861
909.79
908.74
907.707
906.687
905.674
904.668
903.676
902.715
901.811
900.977
900.191
899.371
898.351
896.818
893.967
888.367
877.553
857.905
825.088
775.455
708.355
628.409
545.91
473.797
421.739
392.001
379.743
376.034
375.379
375.282
375.35
375.485
375.603
375.629
375.6
375.506
375.348
375.159
374.978
374.826
374.705
374.606
374.514
374.421
374.322
374.217
374.108
374
373.895
373.797
373.705
373.623
373.548
373.478
373.407
373.33
373.245
373.143
2903.69
2903.5
2903.1
2902.55
2901.75
2900.64
2899.15
2897.1
2895.22
2892.71
2889.13
2886
2883.25
2879.92
2876.62
2874.36
2872.8
2871.29
2870.07
2869.5
2869.43
2869.37
2868.5
2866.93
2865.78
2865.81
2865.65
2864.82
2863.38
2861.73
2860.25
2859.13
2858.37
2858.24
2859
2861.17
2864.95
2870.51
2878.16
2888.23
2901.05
2916.98
2936.37
2959.62
2986.97
3018.69
3055.49
3096.89
3144.11
3197.18
3229.97
2772.87
1589.95
1093.45
1037.94
1031.67
1026.54
1021.34
1016.37
1011.7
1007.3
1003.13
999.153
995.374
991.776
988.343
985.061
981.918
978.904
976.008
973.223
970.54
967.952
965.453
963.038
960.702
958.439
956.247
954.122
952.06
950.057
948.111
946.217
944.374
942.579
940.829
939.124
937.46
935.837
934.253
932.705
931.192
929.712
928.265
926.848
925.461
924.104
922.774
921.472
920.196
918.946
917.721
916.52
915.342
914.187
913.053
911.941
910.85
909.781
908.732
907.7
906.681
905.669
904.664
903.671
902.711
901.807
900.973
900.187
899.368
898.349
896.817
893.969
888.375
877.572
857.942
825.146
775.534
708.449
628.505
545.991
473.853
421.771
392.015
379.746
376.034
375.378
375.281
375.349
375.484
375.601
375.628
375.599
375.505
375.347
375.158
374.977
374.825
374.704
374.605
374.513
374.42
374.321
374.216
374.108
373.999
373.894
373.796
373.705
373.622
373.547
373.477
373.406
373.33
373.244
373.143
2903.15
2902.99
2902.55
2902
2901.2
2900.1
2898.61
2896.74
2894.6
2891.72
2888.53
2885.63
2882.42
2878.9
2875.99
2873.85
2872
2870.36
2869.31
2868.9
2868.66
2867.99
2867.01
2866.35
2866.34
2866.45
2866.09
2865.04
2863.48
2861.74
2860.13
2858.98
2858.19
2858.03
2858.72
2860.79
2864.43
2869.78
2877.17
2886.96
2899.52
2915.16
2934.31
2957.4
2984.69
3016.41
3053.19
3094.96
3142.95
3196.18
3223.69
2686.7
1534.29
1083.27
1036.7
1030.7
1025.59
1020.41
1015.47
1010.83
1006.44
1002.29
998.344
994.599
991.032
987.628
984.375
981.26
978.272
975.403
972.642
969.984
967.419
964.943
962.55
960.235
957.993
955.821
953.715
951.672
949.688
947.76
945.884
944.057
942.278
940.545
938.855
937.206
935.598
934.027
932.493
930.993
929.527
928.092
926.687
925.312
923.965
922.646
921.354
920.088
918.847
917.63
916.437
915.266
914.118
912.991
911.885
910.8
909.736
908.691
907.664
906.648
905.64
904.638
903.649
902.691
901.789
900.957
900.174
899.356
898.34
896.81
893.965
888.376
877.583
857.967
825.192
775.603
708.535
628.595
546.07
473.909
421.802
392.027
379.749
376.033
375.377
375.28
375.348
375.482
375.6
375.627
375.598
375.504
375.346
375.157
374.976
374.824
374.704
374.604
374.513
374.42
374.321
374.216
374.107
373.999
373.894
373.795
373.704
373.622
373.547
373.477
373.406
373.329
373.244
373.143
2902.35
2902.24
2901.75
2901.2
2900.4
2899.29
2897.82
2895.97
2893.62
2890.8
2887.87
2884.73
2881.25
2877.92
2875.2
2872.91
2870.86
2869.35
2868.47
2867.95
2867.38
2866.72
2866.35
2866.46
2866.76
2866.71
2866.06
2864.77
2863.1
2861.25
2859.52
2858.23
2857.38
2857.12
2857.65
2859.48
2862.89
2868
2875.15
2884.72
2897.09
2912.58
2931.7
2954.78
2982.12
3013.98
3050.77
3093.04
3141.86
3196.6
3212.56
2573.34
1468.38
1072.44
1035.17
1029.43
1024.32
1019.17
1014.26
1009.65
1005.3
1001.18
997.275
993.565
990.031
986.66
983.438
980.353
977.395
974.554
971.821
969.189
966.651
964.2
961.832
959.54
957.322
955.173
953.09
951.068
949.106
947.198
945.343
943.536
941.777
940.062
938.391
936.761
935.17
933.617
932.1
930.617
929.167
927.748
926.36
925
923.668
922.364
921.087
919.835
918.607
917.404
916.224
915.066
913.93
912.815
911.72
910.646
909.592
908.557
907.539
906.533
905.534
904.54
903.559
902.608
901.714
900.889
900.112
899.302
898.293
896.772
893.934
888.355
877.572
857.968
825.207
775.632
708.577
628.645
546.116
473.944
421.822
392.035
379.751
376.033
375.377
375.279
375.347
375.482
375.6
375.626
375.597
375.504
375.346
375.157
374.975
374.824
374.703
374.604
374.512
374.419
374.32
374.215
374.107
373.999
373.894
373.795
373.704
373.622
373.547
373.477
373.406
373.329
373.244
373.143
2901.21
2901.2
2900.64
2900.1
2899.29
2898.19
2896.72
2894.84
2892.46
2889.74
2886.76
2883.41
2879.94
2876.78
2874.01
2871.55
2869.54
2868.17
2867.3
2866.63
2866.07
2865.82
2865.94
2866.32
2866.52
2866.23
2865.28
2863.77
2861.97
2860.02
2858.16
2856.67
2855.72
2855.34
2855.74
2857.39
2860.66
2865.63
2872.66
2882.12
2894.42
2909.87
2929.01
2952.08
2979.53
3011.52
3048.63
3091.43
3141.68
3196.43
3198.78
2430.48
1396.27
1061.87
1033.39
1027.88
1022.78
1017.66
1012.79
1008.22
1003.91
999.836
995.97
992.296
988.798
985.46
982.27
979.216
976.288
973.476
970.771
968.167
965.655
963.23
960.887
958.621
956.427
954.301
952.241
950.242
948.302
946.416
944.582
942.797
941.059
939.365
937.713
936.103
934.532
932.999
931.501
930.037
928.605
927.204
925.834
924.492
923.178
921.891
920.63
919.395
918.184
916.997
915.832
914.69
913.569
912.469
911.389
910.33
909.29
908.269
907.265
906.273
905.287
904.306
903.339
902.402
901.521
900.71
899.948
899.153
898.158
896.656
893.831
888.27
877.507
857.925
825.183
775.625
708.583
628.658
546.131
473.957
421.83
392.039
379.752
376.033
375.377
375.279
375.347
375.482
375.6
375.626
375.597
375.504
375.346
375.157
374.975
374.824
374.703
374.604
374.512
374.419
374.32
374.215
374.107
373.998
373.894
373.795
373.704
373.622
373.547
373.477
373.406
373.329
373.244
373.143
2899.71
2899.85
2899.15
2898.61
2897.82
2896.72
2895.25
2893.35
2891
2888.28
2885.18
2881.79
2878.41
2875.27
2872.4
2869.91
2868.01
2866.7
2865.78
2865.11
2864.79
2864.86
2865.17
2865.47
2865.39
2864.78
2863.56
2861.93
2860.04
2858.01
2856.05
2854.45
2853.38
2852.94
2853.3
2854.89
2858.11
2863.03
2870
2879.41
2891.64
2907.07
2926.17
2949.29
2976.86
3009.12
3046.74
3090.54
3142.09
3198.2
3171.59
2270.5
1323.18
1051.92
1031.42
1026.09
1020.99
1015.91
1011.09
1006.57
1002.3
998.265
994.438
990.8
987.336
984.032
980.874
977.851
974.953
972.17
969.493
966.916
964.431
962.032
959.714
957.473
955.303
953.202
951.165
949.189
947.272
945.408
943.596
941.833
940.116
938.443
936.813
935.223
933.673
932.159
930.681
929.237
927.825
926.444
925.092
923.769
922.474
921.205
919.963
918.745
917.552
916.383
915.236
914.111
913.007
911.924
910.86
909.817
908.794
907.791
906.803
905.828
904.86
903.898
902.948
902.031
901.169
900.379
899.639
898.868
897.894
896.42
893.618
888.085
877.352
857.799
825.089
775.563
708.548
628.643
546.128
473.959
421.833
392.041
379.753
376.033
375.377
375.279
375.347
375.482
375.6
375.626
375.597
375.504
375.346
375.157
374.975
374.824
374.703
374.604
374.512
374.419
374.32
374.215
374.107
373.998
373.894
373.795
373.704
373.622
373.547
373.477
373.406
373.329
373.244
373.143
2898.26
2897.74
2897.1
2896.74
2895.97
2894.84
2893.35
2891.44
2889.11
2886.34
2883.19
2879.83
2876.49
2873.29
2870.38
2867.96
2866.13
2864.82
2863.89
2863.35
2863.21
2863.36
2863.58
2863.61
2863.26
2862.42
2861.12
2859.45
2857.53
2855.48
2853.5
2851.87
2850.75
2850.32
2850.69
2852.26
2855.45
2860.32
2867.24
2876.6
2888.75
2904.16
2923.24
2946.52
2974.25
3006.97
3045.29
3090.22
3143.49
3198.33
3129.71
2095.94
1253.82
1043.74
1029.28
1024.09
1018.98
1013.94
1009.18
1004.7
1000.48
996.481
992.692
989.09
985.661
982.39
979.264
976.272
973.403
970.648
968
965.449
962.99
960.617
958.325
956.108
953.962
951.884
949.87
947.918
946.022
944.181
942.391
940.649
938.953
937.301
935.692
934.123
932.593
931.1
929.642
928.217
926.824
925.463
924.13
922.826
921.55
920.3
919.076
917.877
916.702
915.55
914.422
913.315
912.229
911.163
910.118
909.094
908.09
907.105
906.137
905.183
904.236
903.295
902.37
901.476
900.641
899.877
899.165
898.426
897.48
896.041
893.273
887.777
877.082
857.569
824.899
775.415
708.444
628.581
546.1
473.95
421.831
392.041
379.753
376.033
375.377
375.279
375.347
375.482
375.6
375.626
375.597
375.504
375.346
375.157
374.975
374.824
374.703
374.604
374.512
374.419
374.32
374.215
374.107
373.998
373.894
373.795
373.704
373.622
373.547
373.477
373.406
373.329
373.244
373.143
2895.43
2895.36
2895.22
2894.6
2893.62
2892.46
2891
2889.11
2886.75
2883.95
2880.8
2877.46
2874.09
2870.85
2867.97
2865.61
2863.81
2862.49
2861.61
2861.17
2861.06
2861.1
2861.11
2860.93
2860.45
2859.58
2858.31
2856.68
2854.79
2852.78
2850.82
2849.18
2848.06
2847.65
2848.03
2849.56
2852.69
2857.51
2864.37
2873.69
2885.77
2901.2
2920.31
2943.84
2971.89
3005.25
3044.4
3090.79
3145.49
3199.01
3052.41
1921.41
1186.61
1037.39
1026.99
1021.9
1016.78
1011.78
1007.07
1002.64
998.458
994.503
990.752
987.187
983.792
980.554
977.459
974.497
971.657
968.931
966.309
963.785
961.352
959.004
956.735
954.542
952.42
950.365
948.374
946.443
944.569
942.749
940.98
939.259
937.584
935.952
934.363
932.814
931.303
929.829
928.39
926.985
925.611
924.268
922.954
921.669
920.411
919.179
917.973
916.792
915.635
914.502
913.391
912.302
911.235
910.188
909.162
908.158
907.174
906.211
905.266
904.335
903.412
902.498
901.6
900.736
899.932
899.2
898.523
897.822
896.915
895.507
892.786
887.335
876.685
857.217
824.593
775.159
708.246
628.446
546.023
473.916
421.82
392.039
379.754
376.033
375.377
375.279
375.347
375.482
375.6
375.626
375.597
375.504
375.346
375.157
374.975
374.824
374.703
374.604
374.512
374.419
374.32
374.215
374.107
373.998
373.894
373.795
373.704
373.622
373.547
373.477
373.406
373.329
373.244
373.143
2891.65
2893.63
2892.71
2891.72
2890.8
2889.74
2888.28
2886.34
2883.95
2881.14
2878
2874.64
2871.25
2868.02
2865.17
2862.84
2861.03
2859.73
2858.9
2858.47
2858.29
2858.2
2858.1
2857.89
2857.44
2856.65
2855.45
2853.88
2852.05
2850.08
2848.14
2846.49
2845.35
2844.93
2845.29
2846.76
2849.81
2854.61
2861.41
2870.71
2882.77
2898.28
2917.54
2941.4
2969.89
3004.25
3044.28
3092.47
3149.07
3196.97
2922.71
1748.03
1131.15
1032.46
1024.55
1019.51
1014.4
1009.44
1004.78
1000.4
996.267
992.353
988.639
985.11
981.75
978.544
975.481
972.548
969.737
967.038
964.443
961.944
959.536
957.212
954.967
952.797
950.697
948.664
946.694
944.784
942.931
941.132
939.383
937.681
936.025
934.413
932.842
931.312
929.82
928.365
926.944
925.557
924.201
922.875
921.579
920.311
919.07
917.856
916.667
915.504
914.364
913.248
912.155
911.084
910.036
909.008
908.003
907.019
906.058
905.119
904.198
903.294
902.4
901.516
900.65
899.82
899.051
898.357
897.719
897.063
896.202
894.824
892.152
886.748
876.148
856.727
824.152
774.774
707.928
628.209
545.872
473.836
421.787
392.028
379.751
376.033
375.377
375.279
375.347
375.482
375.6
375.626
375.597
375.504
375.346
375.157
374.975
374.824
374.703
374.604
374.512
374.419
374.32
374.215
374.107
373.998
373.894
373.795
373.704
373.622
373.547
373.477
373.406
373.329
373.244
373.143
2889.39
2890.23
2889.13
2888.53
2887.87
2886.76
2885.18
2883.19
2880.8
2878
2874.84
2871.47
2868.07
2864.86
2862.04
2859.71
2857.92
2856.64
2855.83
2855.38
2855.15
2855.04
2854.98
2854.86
2854.52
2853.83
2852.69
2851.16
2849.36
2847.41
2845.46
2843.78
2842.62
2842.16
2842.49
2843.92
2846.92
2851.7
2858.48
2867.78
2879.89
2895.54
2915.07
2939.37
2968.54
3003.96
3045.35
3095.51
3154.03
3189.1
2721.17
1578.4
1089.4
1028.46
1021.99
1016.96
1011.85
1006.95
1002.35
998.015
993.925
990.051
986.376
982.883
979.556
976.383
973.35
970.447
967.664
964.991
962.422
959.948
957.564
955.263
953.041
950.892
948.814
946.802
944.852
942.962
941.129
939.349
937.618
935.935
934.298
932.704
931.151
929.638
928.163
926.725
925.321
923.951
922.612
921.303
920.023
918.771
917.546
916.348
915.176
914.028
912.905
911.807
910.731
909.679
908.649
907.642
906.658
905.697
904.76
903.847
902.954
902.079
901.217
900.366
899.535
898.743
898.014
897.362
896.766
896.157
895.346
894.001
891.377
886.021
875.469
856.094
823.565
774.24
707.467
627.846
545.62
473.688
421.714
391.998
379.742
376.032
375.376
375.279
375.347
375.482
375.6
375.626
375.597
375.504
375.346
375.157
374.975
374.824
374.703
374.604
374.512
374.419
374.32
374.215
374.107
373.998
373.894
373.795
373.704
373.622
373.547
373.477
373.406
373.329
373.244
373.143
2886.45
2885.65
2886
2885.63
2884.73
2883.41
2881.79
2879.83
2877.46
2874.64
2871.47
2868.08
2864.69
2861.51
2858.7
2856.4
2854.65
2853.42
2852.63
2852.18
2852
2851.98
2852.02
2852.02
2851.79
2851.15
2850.03
2848.5
2846.7
2844.73
2842.77
2841.07
2839.9
2839.4
2839.7
2841.12
2844.11
2848.9
2855.67
2865.02
2877.27
2893.14
2913.08
2937.93
2967.98
3004.46
3047.87
3100.3
3160.31
3167.59
2456.39
1420.84
1060.75
1025.01
1019.3
1014.26
1009.17
1004.32
999.776
995.496
991.45
987.618
983.981
980.524
977.231
974.089
971.087
968.213
965.457
962.811
960.266
957.817
955.456
953.177
950.977
948.849
946.791
944.799
942.869
940.998
939.183
937.421
935.708
934.043
932.422
930.845
929.309
927.812
926.353
924.931
923.543
922.188
920.864
919.57
918.305
917.069
915.859
914.676
913.519
912.387
911.281
910.199
909.141
908.108
907.098
906.112
905.151
904.215
903.304
902.419
901.556
900.713
899.885
899.07
898.278
897.526
896.839
896.231
895.679
895.118
894.357
893.05
890.47
885.16
874.65
855.314
822.823
773.545
706.844
627.331
545.243
473.448
421.582
391.931
379.716
376.025
375.373
375.279
375.347
375.482
375.6
375.626
375.597
375.504
375.346
375.157
374.975
374.824
374.703
374.604
374.512
374.419
374.32
374.215
374.107
373.999
373.894
373.795
373.704
373.622
373.547
373.477
373.406
373.329
373.244
373.143
2881.6
2883.02
2883.25
2882.42
2881.25
2879.94
2878.41
2876.49
2874.09
2871.25
2868.07
2864.69
2861.32
2858.15
2855.39
2853.14
2851.46
2850.29
2849.56
2849.19
2849.12
2849.21
2849.36
2849.44
2849.26
2848.63
2847.49
2845.92
2844.09
2842.1
2840.12
2838.42
2837.24
2836.71
2837
2838.44
2841.44
2846.23
2853.04
2862.49
2874.96
2891.17
2911.71
2937.25
2968.42
3006.13
3052
3106.75
3167.29
3117.93
2168.23
1288.32
1041.41
1021.82
1016.51
1011.42
1006.36
1001.58
997.092
992.862
988.862
985.071
981.472
978.051
974.792
971.682
968.709
965.863
963.134
960.514
957.994
955.568
953.229
950.973
948.793
946.686
944.647
942.674
940.762
938.909
937.112
935.367
933.671
932.022
930.417
928.856
927.335
925.854
924.41
923.002
921.629
920.288
918.978
917.698
916.447
915.225
914.029
912.861
911.719
910.602
909.512
908.447
907.408
906.394
905.406
904.443
903.506
902.596
901.714
900.859
900.029
899.22
898.428
897.652
896.9
896.189
895.546
894.983
894.476
893.96
893.248
891.982
889.444
884.174
873.699
854.392
821.924
772.679
706.042
626.645
544.718
473.095
421.374
391.812
379.658
376.007
375.363
375.276
375.346
375.482
375.6
375.626
375.597
375.504
375.346
375.157
374.975
374.824
374.703
374.604
374.512
374.419
374.32
374.215
374.107
373.999
373.894
373.795
373.704
373.622
373.547
373.477
373.406
373.329
373.244
373.143
2878.05
2880.45
2879.92
2878.9
2877.92
2876.78
2875.27
2873.29
2870.85
2868.02
2864.86
2861.51
2858.15
2855.03
2852.33
2850.18
2848.58
2847.49
2846.85
2846.58
2846.61
2846.78
2847.01
2847.12
2846.93
2846.26
2845.07
2843.46
2841.6
2839.59
2837.59
2835.88
2834.68
2834.13
2834.42
2835.9
2838.92
2843.73
2850.64
2860.26
2873.05
2889.76
2911.06
2937.46
2970.1
3009.37
3057.85
3114.97
3170.98
3007.18
1893.66
1181.36
1029.81
1018.72
1013.59
1008.46
1003.46
998.739
994.309
990.129
986.174
982.425
978.865
975.48
972.254
969.175
966.232
963.414
960.712
958.116
955.621
953.218
950.901
948.666
946.506
944.418
942.399
940.443
938.55
936.714
934.933
933.204
931.524
929.891
928.301
926.754
925.248
923.781
922.351
920.957
919.597
918.269
916.972
915.706
914.468
913.258
912.077
910.922
909.795
908.694
907.621
906.574
905.554
904.561
903.595
902.657
901.747
900.865
900.013
899.191
898.395
897.623
896.869
896.132
895.42
894.751
894.152
893.634
893.172
892.699
892.035
890.811
888.309
883.074
872.625
853.33
820.867
771.636
705.051
625.772
544.028
472.613
421.075
391.627
379.551
375.969
375.341
375.267
375.341
375.481
375.6
375.627
375.598
375.504
375.346
375.157
374.975
374.824
374.703
374.604
374.512
374.419
374.32
374.215
374.107
373.999
373.894
373.795
373.704
373.622
373.547
373.477
373.406
373.329
373.244
373.143
2876.14
2876.54
2876.62
2875.99
2875.2
2874.01
2872.4
2870.38
2867.97
2865.17
2862.04
2858.7
2855.39
2852.33
2849.73
2847.68
2846.18
2845.18
2844.61
2844.43
2844.53
2844.77
2845.03
2845.11
2844.86
2844.11
2842.86
2841.22
2839.32
2837.26
2835.22
2833.46
2832.21
2831.65
2831.96
2833.47
2836.53
2841.4
2848.48
2858.36
2871.61
2888.96
2911.21
2938.75
2973.24
3014.47
3065.87
3125.39
3166.36
2787.8
1645.77
1104.34
1023.04
1015.62
1010.55
1005.41
1000.46
995.811
991.439
987.309
983.4
979.694
976.173
972.824
969.631
966.584
963.67
960.88
958.203
955.633
953.161
950.78
948.485
946.27
944.13
942.062
940.06
938.122
936.245
934.426
932.661
930.948
929.283
927.664
926.089
924.556
923.063
921.609
920.192
918.811
917.463
916.148
914.864
913.609
912.384
911.188
910.019
908.879
907.767
906.683
905.627
904.599
903.6
902.63
901.689
900.777
899.895
899.044
898.224
897.436
896.676
895.941
895.226
894.529
893.858
893.231
892.675
892.201
891.782
891.351
890.731
889.546
887.077
881.869
871.434
852.136
819.656
770.414
703.863
624.699
543.157
471.985
420.673
391.366
379.373
375.899
375.298
375.247
375.327
375.476
375.6
375.627
375.598
375.504
375.346
375.157
374.975
374.824
374.703
374.604
374.512
374.419
374.32
374.215
374.107
373.999
373.894
373.795
373.704
373.622
373.547
373.477
373.406
373.329
373.244
373.143
2873.36
2873.5
2874.36
2873.85
2872.91
2871.55
2869.91
2867.96
2865.61
2862.84
2859.71
2856.4
2853.14
2850.18
2847.68
2845.72
2844.31
2843.37
2842.86
2842.72
2842.87
2843.16
2843.39
2843.39
2843.07
2842.22
2840.9
2839.21
2837.25
2835.11
2832.98
2831.13
2829.81
2829.24
2829.59
2831.15
2834.28
2839.3
2846.63
2856.91
2870.74
2888.94
2912.24
2941.38
2977.75
3021.44
3075.8
3136.91
3142.45
2449.97
1426.59
1058.27
1018.44
1012.48
1007.39
1002.27
997.388
992.809
988.494
984.416
980.554
976.89
973.408
970.094
966.936
963.919
961.035
958.272
955.621
953.075
950.626
948.268
945.993
943.799
941.678
939.628
937.644
935.723
933.863
932.059
930.31
928.611
926.961
925.356
923.794
922.274
920.794
919.353
917.948
916.578
915.243
913.939
912.667
911.424
910.212
909.028
907.874
906.749
905.653
904.586
903.549
902.542
901.566
900.62
899.705
898.822
897.97
897.151
896.366
895.613
894.889
894.193
893.516
892.859
892.229
891.643
891.128
890.696
890.32
889.928
889.347
888.2
885.759
880.568
870.134
850.813
818.29
769.01
702.472
623.418
542.095
471.201
420.159
391.026
379.107
375.786
375.227
375.209
375.299
375.463
375.596
375.627
375.598
375.505
375.346
375.157
374.975
374.824
374.703
374.604
374.512
374.419
374.32
374.215
374.107
373.999
373.894
373.795
373.704
373.622
373.547
373.477
373.406
373.329
373.244
373.143
2870.26
2872.34
2872.8
2872
2870.86
2869.54
2868.01
2866.13
2863.81
2861.03
2857.92
2854.65
2851.46
2848.58
2846.18
2844.31
2842.96
2842.05
2841.58
2841.48
2841.66
2841.94
2842.13
2842.03
2841.56
2840.59
2839.19
2837.41
2835.33
2833.05
2830.78
2828.83
2827.45
2826.91
2827.32
2828.96
2832.24
2837.48
2845.17
2855.97
2870.58
2889.71
2914.49
2945.6
2983.82
3030.8
3088.06
3146.11
3069.34
2078.64
1256.99
1032.62
1014.67
1009.28
1004.13
999.051
994.252
989.741
985.485
981.459
977.644
974.022
970.58
967.302
964.177
961.192
958.336
955.6
952.975
950.453
948.027
945.69
943.437
941.262
939.16
937.128
935.161
933.257
931.412
929.624
927.89
926.205
924.569
922.977
921.428
919.921
918.453
917.023
915.63
914.272
912.948
911.656
910.395
909.165
907.965
906.795
905.656
904.546
903.468
902.42
901.404
900.419
899.467
898.548
897.662
896.809
895.989
895.204
894.453
893.736
893.05
892.391
891.754
891.136
890.544
889.998
889.523
889.132
888.795
888.44
887.895
886.782
884.364
879.182
868.734
849.368
816.774
767.424
700.873
621.921
540.835
470.253
419.526
390.609
378.746
375.601
375.126
375.141
375.25
375.434
375.584
375.623
375.597
375.505
375.347
375.157
374.976
374.824
374.703
374.604
374.512
374.419
374.32
374.215
374.107
373.999
373.894
373.795
373.704
373.622
373.547
373.477
373.406
373.329
373.244
373.143
2869.02
2871.28
2871.29
2870.36
2869.35
2868.17
2866.7
2864.82
2862.49
2859.73
2856.64
2853.42
2850.29
2847.49
2845.18
2843.37
2842.05
2841.16
2840.72
2840.67
2840.85
2841.09
2841.18
2840.95
2840.31
2839.19
2837.65
2835.72
2833.44
2830.98
2828.56
2826.52
2825.15
2824.68
2825.18
2826.96
2830.43
2835.97
2844.16
2855.65
2871.22
2891.7
2918.23
2951.23
2992.06
3042.24
3101.78
3149.37
2873.93
1747.64
1133.87
1020.34
1011.17
1005.98
1000.79
995.775
991.058
986.617
982.421
978.447
974.679
971.101
967.698
964.456
961.364
958.41
955.583
952.874
950.275
947.777
945.373
943.058
940.825
938.669
936.586
934.571
932.621
930.733
928.904
927.131
925.411
923.74
922.117
920.538
919.001
917.506
916.05
914.631
913.25
911.903
910.59
909.309
908.06
906.843
905.656
904.501
903.377
902.285
901.226
900.199
899.205
898.245
897.32
896.429
895.573
894.751
893.965
893.214
892.499
891.819
891.17
890.549
889.949
889.369
888.816
888.308
887.87
887.517
887.218
886.896
886.385
885.3
882.9
877.717
867.239
847.805
815.109
765.656
699.064
620.203
539.37
469.135
418.766
390.114
378.303
375.294
374.998
375.045
375.175
375.384
375.557
375.613
375.592
375.505
375.348
375.158
374.976
374.824
374.703
374.604
374.512
374.419
374.32
374.215
374.107
373.999
373.894
373.795
373.704
373.622
373.547
373.477
373.406
373.329
373.244
373.143
2869.23
2869.7
2870.07
2869.31
2868.47
2867.3
2865.78
2863.89
2861.61
2858.9
2855.83
2852.63
2849.56
2846.85
2844.61
2842.86
2841.58
2840.72
2840.31
2840.27
2840.41
2840.53
2840.45
2840.04
2839.2
2837.88
2836.14
2833.98
2831.47
2828.81
2826.28
2824.2
2822.87
2822.51
2823.11
2825.09
2828.81
2834.79
2843.7
2856
2872.97
2894.95
2923.58
2958.84
3002.47
3056.42
3117.61
3127.99
2505.32
1464.76
1063.21
1014.18
1007.72
1002.56
997.377
992.446
987.813
983.443
979.307
975.387
971.667
968.132
964.769
961.564
958.505
955.582
952.784
950.102
947.527
945.053
942.672
940.378
938.165
936.028
933.963
931.966
930.032
928.16
926.346
924.587
922.881
921.224
919.613
918.047
916.522
915.038
913.594
912.186
910.815
909.48
908.178
906.909
905.673
904.469
903.297
902.157
901.051
899.978
898.939
897.934
896.965
896.032
895.135
894.274
893.45
892.662
891.91
891.194
890.515
889.871
889.259
888.674
888.111
887.568
887.051
886.579
886.177
885.859
885.594
885.303
884.822
883.763
881.374
876.18
865.656
846.129
813.298
763.706
697.043
618.261
537.697
467.845
417.874
389.535
377.807
374.883
374.794
374.901
375.073
375.307
375.508
375.589
375.578
375.501
375.348
375.159
374.977
374.824
374.704
374.604
374.512
374.419
374.32
374.215
374.107
373.999
373.894
373.795
373.704
373.622
373.547
373.477
373.406
373.329
373.244
373.143
2868.38
2868.86
2869.5
2868.9
2867.95
2866.63
2865.11
2863.35
2861.17
2858.47
2855.38
2852.18
2849.19
2846.58
2844.43
2842.72
2841.48
2840.67
2840.27
2840.18
2840.2
2840.14
2839.84
2839.18
2838.08
2836.52
2834.51
2832.09
2829.34
2826.51
2823.89
2821.81
2820.58
2820.34
2821.09
2823.36
2827.49
2834.09
2843.91
2857.34
2875.91
2899.93
2930.36
2968.74
3015.4
3073.26
3129.65
3043.98
2063.72
1254.05
1028.78
1009.91
1004.26
999.042
993.907
989.071
984.524
980.226
976.152
972.286
968.615
965.124
961.8
958.631
955.606
952.713
949.944
947.289
944.739
942.289
939.93
937.657
935.464
933.346
931.299
929.318
927.401
925.544
923.745
922.001
920.308
918.664
917.065
915.511
913.998
912.526
911.092
909.696
908.336
907.011
905.721
904.465
903.242
902.052
900.896
899.773
898.686
897.634
896.618
895.638
894.696
893.791
892.924
892.095
891.304
890.549
889.832
889.152
888.509
887.901
887.325
886.775
886.247
885.738
885.255
884.819
884.451
884.165
883.931
883.668
883.214
882.176
879.793
874.578
863.99
844.344
811.344
761.574
694.807
616.092
535.811
466.385
416.848
388.861
377.278
374.447
374.443
374.662
374.937
375.204
375.435
375.545
375.549
375.488
375.345
375.16
374.978
374.825
374.704
374.604
374.512
374.419
374.32
374.215
374.107
373.999
373.894
373.795
373.704
373.622
373.547
373.477
373.406
373.329
373.244
373.143
2866.77
2869.36
2869.43
2868.66
2867.38
2866.07
2864.79
2863.21
2861.06
2858.29
2855.15
2852
2849.12
2846.61
2844.53
2842.87
2841.66
2840.85
2840.41
2840.2
2840.02
2839.71
2839.15
2838.21
2836.83
2834.97
2832.66
2829.96
2826.98
2824.02
2821.38
2819.38
2818.28
2818.19
2819.18
2821.9
2826.65
2834.09
2844.98
2859.98
2880.23
2906.47
2939.32
2980.88
3031.58
3091.5
3129.83
2790.66
1679.84
1114.58
1014.87
1006.13
1000.7
995.445
990.392
985.657
981.196
976.97
972.959
969.149
965.527
962.081
958.797
955.664
952.672
949.811
947.07
944.441
941.917
939.49
937.153
934.9
932.727
930.628
928.598
926.634
924.733
922.892
921.107
919.376
917.697
916.066
914.48
912.937
911.436
909.974
908.551
907.166
905.817
904.504
903.227
901.984
900.775
899.601
898.462
897.359
896.293
895.263
894.272
893.319
892.406
891.531
890.696
889.899
889.141
888.421
887.739
887.094
886.486
885.913
885.372
884.856
884.362
883.885
883.435
883.031
882.695
882.44
882.234
881.997
881.565
880.546
878.161
872.915
862.246
842.454
809.248
759.26
692.355
613.696
533.714
464.757
415.696
388.09
376.71
373.994
374
374.307
374.716
375.067
375.331
375.476
375.501
375.459
375.335
375.158
374.978
374.826
374.705
374.605
374.513
374.419
374.32
374.215
374.107
373.999
373.894
373.795
373.704
373.622
373.547
373.477
373.406
373.329
373.244
373.143
2865.76
2870.49
2869.37
2867.99
2866.72
2865.82
2864.86
2863.36
2861.1
2858.2
2855.04
2851.98
2849.21
2846.78
2844.77
2843.16
2841.94
2841.09
2840.53
2840.14
2839.71
2839.13
2838.27
2837.02
2835.32
2833.13
2830.5
2827.54
2824.39
2821.36
2818.76
2816.9
2815.99
2816.12
2817.53
2820.92
2826.52
2834.97
2847.31
2864.06
2886.18
2914.89
2950.76
2995.89
3050.88
3109.43
3088.21
2325.76
1373.43
1044.86
1008.72
1002.44
997.018
991.791
986.843
982.209
977.834
973.681
969.734
965.981
962.409
959.007
955.764
952.668
949.71
946.879
944.166
941.564
939.065
936.66
934.345
932.113
929.96
927.879
925.867
923.92
922.034
920.208
918.437
916.72
915.054
913.435
911.861
910.33
908.84
907.389
905.978
904.604
903.267
901.966
900.702
899.473
898.28
897.124
896.004
894.922
893.879
892.874
891.91
890.985
890.102
889.259
888.456
887.693
886.969
886.284
885.636
885.026
884.452
883.913
883.405
882.922
882.459
882.014
881.594
881.22
880.914
880.688
880.508
880.293
879.882
878.877
876.486
871.197
860.428
840.462
807.013
756.764
689.688
611.072
531.406
462.965
414.415
387.232
376.091
373.506
373.515
373.862
374.385
374.854
375.191
375.377
375.431
375.409
375.309
375.148
374.976
374.826
374.706
374.606
374.513
374.42
374.321
374.215
374.107
373.999
373.894
373.795
373.704
373.622
373.547
373.477
373.406
373.329
373.244
373.143
2866.63
2870.58
2868.5
2867.01
2866.35
2865.94
2865.17
2863.58
2861.11
2858.1
2854.98
2852.02
2849.36
2847.01
2845.03
2843.39
2842.13
2841.18
2840.45
2839.84
2839.15
2838.27
2837.09
2835.49
2833.44
2830.93
2828.02
2824.82
2821.53
2818.48
2815.98
2814.36
2813.74
2814.25
2816.38
2820.59
2827.2
2837.1
2851.09
2869.75
2894.04
2925.69
2965.16
3014.23
3071.73
3118.75
2916.37
1841.85
1169.79
1016.69
1004.44
998.704
993.239
988.094
983.263
978.731
974.441
970.363
966.481
962.785
959.264
955.908
952.706
949.647
946.722
943.922
941.238
938.662