/*--------------------------------*- C++ -*----------------------------------*\
  =========                 |
  \\      /  F ield         | OpenFOAM: The Open Source CFD Toolbox
   \\    /   O peration     | Website:  https://openfoam.org
    \\  /    A nd           | Version:  13
     \\/     M anipulation  |
\*---------------------------------------------------------------------------*/
FoamFile
{
    format      ascii;
    class       volScalarField;
    location    "0.0011";
    object      CO2;
}
// * * * * * * * * * * * * * * * * * * * * * * * * * * * * * * * * * * * * * //

dimensions      [];

internalField   nonuniform List<scalar> 
33334
(
0.0100815
0.0100815
0.0100815
0.0100815
0.0100815
0.0100815
0.0100815
0.0100815
0.0100815
0.0100815
0.0100815
0.0100815
0.0100815
0.0100815
0.0100815
0.0100815
0.0100815
0.0100815
0.0100815
0.0100815
0.0100815
0.0100815
0.0100815
0.0100815
0.010081
0.0100792
0.0100739
0.0100622
0.0100413
0.0100082
0.00996051
0.00989677
0.00981615
0.00971865
0.00960492
0.00947608
0.00933362
0.00917922
0.00901467
0.00884174
0.00866214
0.00847747
0.0082892
0.00809864
0.00790696
0.00771517
0.00752413
0.0073346
0.00714718
0.0069624
0.00678068
0.00660234
0.00642767
0.00625686
0.00609006
0.00592738
0.00576887
0.00561455
0.00546442
0.00531843
0.00517648
0.00503849
0.00490432
0.00477383
0.00464686
0.00452327
0.0044029
0.00428561
0.00417129
0.0040598
0.00395101
0.00384481
0.00374108
0.00363973
0.00354065
0.00344376
0.00334897
0.0032562
0.00316538
0.00307643
0.00298928
0.00290387
0.00282013
0.00273802
0.00265747
0.00257842
0.00250084
0.00242468
0.00234989
0.00227643
0.00220427
0.00213336
0.00206367
0.00199517
0.00192781
0.00186157
0.00179641
0.0017323
0.0016692
0.00160709
0.00154595
0.00148577
0.00142653
0.00136818
0.00131065
0.00125382
0.0011976
0.00114208
0.00108756
0.0010346
0.000983735
0.000934952
0.000886971
0.000836636
0.000778522
0.000705202
0.000609251
0.000488317
0.000351394
0.00021922
0.000114116
4.71596e-05
1.43781e-05
2.90235e-06
3.33222e-07
1.77966e-08
3.49086e-10
2.11447e-12
1.68101e-13
1.65852e-13
1.65797e-13
1.65087e-13
1.62208e-13
1.55949e-13
1.46524e-13
1.3536e-13
1.24084e-13
1.13674e-13
1.04321e-13
9.57538e-14
8.7595e-14
7.95563e-14
7.14905e-14
6.33683e-14
5.52268e-14
4.71209e-14
3.90956e-14
3.11853e-14
2.344e-14
1.59871e-14
9.1685e-15
3.75128e-15
7.63712e-16
4.60148e-17
5.76978e-18
5.36802e-18
5.36296e-18
5.36291e-18
5.36291e-18
5.36291e-18
5.36291e-18
5.36291e-18
5.36291e-18
5.36291e-18
5.36291e-18
5.36291e-18
0.0100815
0.0100815
0.0100815
0.0100815
0.0100815
0.0100815
0.0100815
0.0100815
0.0100815
0.0100815
0.0100815
0.0100815
0.0100815
0.0100815
0.0100815
0.0100815
0.0100815
0.0100815
0.0100815
0.0100815
0.0100815
0.0100815
0.0100815
0.0100815
0.010081
0.0100792
0.0100739
0.0100622
0.0100413
0.0100082
0.00996051
0.00989677
0.00981615
0.00971865
0.00960492
0.00947608
0.00933362
0.00917922
0.00901467
0.00884174
0.00866214
0.00847747
0.0082892
0.00809864
0.00790696
0.00771517
0.00752414
0.0073346
0.00714719
0.00696241
0.00678068
0.00660235
0.00642768
0.00625687
0.00609007
0.00592739
0.00576888
0.00561457
0.00546444
0.00531844
0.0051765
0.00503851
0.00490433
0.00477384
0.00464688
0.00452329
0.00440292
0.00428564
0.00417131
0.00405982
0.00395103
0.00384483
0.00374111
0.00363975
0.00354068
0.00344379
0.003349
0.00325623
0.00316541
0.00307646
0.00298931
0.0029039
0.00282017
0.00273805
0.0026575
0.00257846
0.00250088
0.00242472
0.00234993
0.00227647
0.00220431
0.0021334
0.00206371
0.00199521
0.00192785
0.00186161
0.00179645
0.00173234
0.00166924
0.00160714
0.001546
0.00148581
0.00142657
0.00136823
0.00131069
0.00125386
0.00119765
0.00114212
0.0010876
0.00103464
0.000983777
0.000934994
0.000887013
0.000836683
0.000778578
0.000705275
0.000609342
0.00048842
0.000351493
0.000219297
0.000114164
4.7182e-05
1.43857e-05
2.90408e-06
3.33455e-07
1.78117e-08
3.49448e-10
2.11692e-12
1.68101e-13
1.65849e-13
1.65794e-13
1.65084e-13
1.62206e-13
1.55948e-13
1.46524e-13
1.3536e-13
1.24084e-13
1.13674e-13
1.04321e-13
9.57533e-14
8.75945e-14
7.95558e-14
7.14901e-14
6.3368e-14
5.52265e-14
4.71206e-14
3.90954e-14
3.11851e-14
2.34399e-14
1.59871e-14
9.16848e-15
3.75129e-15
7.63719e-16
4.60158e-17
5.76979e-18
5.36802e-18
5.36296e-18
5.36291e-18
5.36291e-18
5.36291e-18
5.36291e-18
5.36291e-18
5.36291e-18
5.36291e-18
5.36291e-18
5.36291e-18
0.0100815
0.0100815
0.0100815
0.0100815
0.0100815
0.0100815
0.0100815
0.0100815
0.0100815
0.0100815
0.0100815
0.0100815
0.0100815
0.0100815
0.0100815
0.0100815
0.0100815
0.0100815
0.0100815
0.0100815
0.0100815
0.0100815
0.0100815
0.0100815
0.010081
0.0100792
0.0100739
0.0100622
0.0100413
0.0100082
0.00996051
0.00989677
0.00981615
0.00971865
0.00960492
0.00947608
0.00933362
0.00917922
0.00901467
0.00884174
0.00866214
0.00847747
0.0082892
0.00809864
0.00790696
0.00771517
0.00752414
0.00733461
0.00714719
0.00696241
0.00678069
0.00660236
0.00642768
0.00625688
0.00609008
0.0059274
0.00576889
0.00561458
0.00546445
0.00531845
0.00517651
0.00503852
0.00490435
0.00477386
0.0046469
0.00452331
0.00440293
0.00428565
0.00417133
0.00405984
0.00395106
0.00384486
0.00374113
0.00363978
0.0035407
0.00344382
0.00334903
0.00325626
0.00316544
0.00307649
0.00298934
0.00290393
0.0028202
0.00273809
0.00265754
0.0025785
0.00250092
0.00242476
0.00234997
0.00227651
0.00220435
0.00213344
0.00206375
0.00199525
0.0019279
0.00186166
0.0017965
0.00173239
0.00166929
0.00160718
0.00154604
0.00148586
0.00142662
0.00136828
0.00131074
0.00125391
0.0011977
0.00114218
0.00108766
0.00103469
0.000983829
0.000935044
0.000887065
0.00083674
0.000778649
0.000705368
0.000609462
0.00048856
0.000351634
0.000219414
0.00011424
4.72201e-05
1.43994e-05
2.9073e-06
3.33881e-07
1.7838e-08
3.50048e-10
2.12082e-12
1.681e-13
1.65842e-13
1.65787e-13
1.65077e-13
1.62201e-13
1.55944e-13
1.46521e-13
1.35358e-13
1.24082e-13
1.13672e-13
1.04319e-13
9.57513e-14
8.75926e-14
7.95542e-14
7.14887e-14
6.33668e-14
5.52255e-14
4.71199e-14
3.90948e-14
3.11847e-14
2.34396e-14
1.59869e-14
9.16844e-15
3.7513e-15
7.6373e-16
4.60171e-17
5.76981e-18
5.36802e-18
5.36296e-18
5.36291e-18
5.36291e-18
5.36291e-18
5.36291e-18
5.36291e-18
5.36291e-18
5.36291e-18
5.36291e-18
5.36291e-18
0.0100815
0.0100815
0.0100815
0.0100815
0.0100815
0.0100815
0.0100815
0.0100815
0.0100815
0.0100815
0.0100815
0.0100815
0.0100815
0.0100815
0.0100815
0.0100815
0.0100815
0.0100815
0.0100815
0.0100815
0.0100815
0.0100815
0.0100815
0.0100815
0.010081
0.0100792
0.0100739
0.0100622
0.0100413
0.0100082
0.00996051
0.00989676
0.00981615
0.00971865
0.00960491
0.00947608
0.00933362
0.00917922
0.00901467
0.00884174
0.00866214
0.00847747
0.0082892
0.00809864
0.00790696
0.00771517
0.00752414
0.0073346
0.00714719
0.00696241
0.00678069
0.00660236
0.00642769
0.00625688
0.00609008
0.0059274
0.00576889
0.00561458
0.00546445
0.00531845
0.00517651
0.00503852
0.00490435
0.00477386
0.0046469
0.00452331
0.00440294
0.00428566
0.00417134
0.00405985
0.00395106
0.00384486
0.00374114
0.00363979
0.00354071
0.00344383
0.00334904
0.00325627
0.00316545
0.0030765
0.00298935
0.00290395
0.00282021
0.0027381
0.00265755
0.00257851
0.00250094
0.00242477
0.00234999
0.00227653
0.00220437
0.00213346
0.00206378
0.00199527
0.00192792
0.00186168
0.00179652
0.00173241
0.00166932
0.00160721
0.00154607
0.00148589
0.00142665
0.0013683
0.00131077
0.00125394
0.00119773
0.00114221
0.00108769
0.00103472
0.000983858
0.000935073
0.000887095
0.000836774
0.000778693
0.000705427
0.000609541
0.000488657
0.000351735
0.000219501
0.0001143
4.72515e-05
1.44112e-05
2.91018e-06
3.34273e-07
1.78624e-08
3.50601e-10
2.12436e-12
1.68098e-13
1.65835e-13
1.6578e-13
1.65071e-13
1.62195e-13
1.5594e-13
1.46517e-13
1.35355e-13
1.24079e-13
1.13669e-13
1.04316e-13
9.57493e-14
8.75909e-14
7.95526e-14
7.14874e-14
6.33658e-14
5.52248e-14
4.71193e-14
3.90944e-14
3.11844e-14
2.34395e-14
1.59869e-14
9.16845e-15
3.75132e-15
7.63742e-16
4.60183e-17
5.76983e-18
5.36802e-18
5.36296e-18
5.36291e-18
5.36291e-18
5.36291e-18
5.36291e-18
5.36291e-18
5.36291e-18
5.36291e-18
5.36291e-18
5.36291e-18
0.0100815
0.0100815
0.0100815
0.0100815
0.0100815
0.0100815
0.0100815
0.0100815
0.0100815
0.0100815
0.0100815
0.0100815
0.0100815
0.0100815
0.0100815
0.0100815
0.0100815
0.0100815
0.0100815
0.0100815
0.0100815
0.0100815
0.0100815
0.0100815
0.010081
0.0100792
0.0100739
0.0100622
0.0100413
0.0100082
0.00996051
0.00989676
0.00981615
0.00971865
0.00960491
0.00947607
0.00933361
0.00917922
0.00901467
0.00884173
0.00866213
0.00847746
0.0082892
0.00809864
0.00790696
0.00771517
0.00752414
0.0073346
0.00714719
0.00696241
0.00678069
0.00660236
0.00642768
0.00625687
0.00609008
0.0059274
0.00576889
0.00561458
0.00546445
0.00531845
0.00517651
0.00503852
0.00490435
0.00477386
0.0046469
0.00452331
0.00440294
0.00428566
0.00417134
0.00405985
0.00395106
0.00384486
0.00374114
0.00363979
0.00354072
0.00344383
0.00334904
0.00325628
0.00316545
0.0030765
0.00298936
0.00290395
0.00282022
0.00273811
0.00265756
0.00257852
0.00250094
0.00242478
0.00234999
0.00227654
0.00220437
0.00213347
0.00206378
0.00199528
0.00192792
0.00186169
0.00179653
0.00173242
0.00166932
0.00160722
0.00154608
0.0014859
0.00142666
0.00136831
0.00131078
0.00125395
0.00119774
0.00114222
0.0010877
0.00103473
0.000983868
0.000935082
0.000887104
0.000836785
0.000778708
0.000705449
0.000609572
0.000488697
0.000351779
0.00021954
0.000114328
4.72668e-05
1.44173e-05
2.91172e-06
3.34493e-07
1.78768e-08
3.50941e-10
2.12661e-12
1.68098e-13
1.65831e-13
1.65777e-13
1.65067e-13
1.62192e-13
1.55937e-13
1.46515e-13
1.35353e-13
1.24078e-13
1.13668e-13
1.04315e-13
9.57483e-14
8.75901e-14
7.9552e-14
7.1487e-14
6.33654e-14
5.52245e-14
4.71191e-14
3.90943e-14
3.11844e-14
2.34395e-14
1.59869e-14
9.16849e-15
3.75136e-15
7.63755e-16
4.60194e-17
5.76984e-18
5.36802e-18
5.36296e-18
5.36291e-18
5.36291e-18
5.36291e-18
5.36291e-18
5.36291e-18
5.36291e-18
5.36291e-18
5.36291e-18
5.36291e-18
0.0100815
0.0100815
0.0100815
0.0100815
0.0100815
0.0100815
0.0100815
0.0100815
0.0100815
0.0100815
0.0100815
0.0100815
0.0100815
0.0100815
0.0100815
0.0100815
0.0100815
0.0100815
0.0100815
0.0100815
0.0100815
0.0100815
0.0100815
0.0100815
0.010081
0.0100792
0.0100739
0.0100622
0.0100413
0.0100082
0.00996051
0.00989676
0.00981615
0.00971865
0.00960491
0.00947607
0.00933361
0.00917922
0.00901467
0.00884173
0.00866213
0.00847746
0.00828919
0.00809864
0.00790696
0.00771517
0.00752413
0.0073346
0.00714719
0.00696241
0.00678068
0.00660235
0.00642768
0.00625687
0.00609008
0.00592739
0.00576889
0.00561458
0.00546445
0.00531845
0.00517651
0.00503852
0.00490435
0.00477386
0.0046469
0.00452331
0.00440294
0.00428566
0.00417134
0.00405985
0.00395106
0.00384486
0.00374114
0.00363979
0.00354072
0.00344383
0.00334904
0.00325628
0.00316545
0.0030765
0.00298936
0.00290395
0.00282022
0.00273811
0.00265756
0.00257852
0.00250094
0.00242478
0.00234999
0.00227654
0.00220437
0.00213347
0.00206378
0.00199528
0.00192793
0.00186169
0.00179653
0.00173242
0.00166933
0.00160722
0.00154608
0.0014859
0.00142666
0.00136832
0.00131079
0.00125395
0.00119774
0.00114222
0.0010877
0.00103474
0.00098387
0.000935084
0.000887106
0.000836787
0.000778711
0.000705453
0.000609579
0.000488706
0.00035179
0.00021955
0.000114336
4.72713e-05
1.44191e-05
2.91223e-06
3.34572e-07
1.78825e-08
3.51086e-10
2.12763e-12
1.68098e-13
1.6583e-13
1.65775e-13
1.65066e-13
1.62191e-13
1.55936e-13
1.46514e-13
1.35353e-13
1.24077e-13
1.13668e-13
1.04315e-13
9.57481e-14
8.75899e-14
7.95519e-14
7.14869e-14
6.33654e-14
5.52245e-14
4.71192e-14
3.90943e-14
3.11844e-14
2.34396e-14
1.5987e-14
9.16855e-15
3.75139e-15
7.63767e-16
4.60205e-17
5.76985e-18
5.36802e-18
5.36296e-18
5.36291e-18
5.36291e-18
5.36291e-18
5.36291e-18
5.36291e-18
5.36291e-18
5.36291e-18
5.36291e-18
5.36291e-18
0.0100815
0.0100815
0.0100815
0.0100815
0.0100815
0.0100815
0.0100815
0.0100815
0.0100815
0.0100815
0.0100815
0.0100815
0.0100815
0.0100815
0.0100815
0.0100815
0.0100815
0.0100815
0.0100815
0.0100815
0.0100815
0.0100815
0.0100815
0.0100815
0.010081
0.0100792
0.0100739
0.0100622
0.0100413
0.0100082
0.00996051
0.00989676
0.00981615
0.00971865
0.00960491
0.00947607
0.00933361
0.00917922
0.00901466
0.00884173
0.00866213
0.00847746
0.00828919
0.00809864
0.00790696
0.00771517
0.00752413
0.0073346
0.00714719
0.00696241
0.00678068
0.00660235
0.00642768
0.00625687
0.00609007
0.00592739
0.00576889
0.00561457
0.00546444
0.00531845
0.00517651
0.00503852
0.00490435
0.00477386
0.0046469
0.00452331
0.00440294
0.00428566
0.00417134
0.00405985
0.00395106
0.00384486
0.00374114
0.00363979
0.00354072
0.00344383
0.00334904
0.00325628
0.00316545
0.0030765
0.00298936
0.00290395
0.00282022
0.00273811
0.00265756
0.00257852
0.00250094
0.00242478
0.00234999
0.00227654
0.00220437
0.00213347
0.00206378
0.00199528
0.00192793
0.00186169
0.00179653
0.00173242
0.00166933
0.00160722
0.00154608
0.0014859
0.00142666
0.00136832
0.00131079
0.00125395
0.00119774
0.00114222
0.0010877
0.00103474
0.00098387
0.000935084
0.000887105
0.000836787
0.00077871
0.000705453
0.000609579
0.000488707
0.000351791
0.000219551
0.000114337
4.72719e-05
1.44194e-05
2.91233e-06
3.34591e-07
1.7884e-08
3.51131e-10
2.12798e-12
1.68099e-13
1.6583e-13
1.65775e-13
1.65066e-13
1.62191e-13
1.55936e-13
1.46514e-13
1.35353e-13
1.24077e-13
1.13668e-13
1.04315e-13
9.57482e-14
8.759e-14
7.9552e-14
7.1487e-14
6.33655e-14
5.52246e-14
4.71193e-14
3.90944e-14
3.11845e-14
2.34396e-14
1.59871e-14
9.1686e-15
3.75142e-15
7.63778e-16
4.60216e-17
5.76987e-18
5.36802e-18
5.36296e-18
5.36291e-18
5.36291e-18
5.36291e-18
5.36291e-18
5.36291e-18
5.36291e-18
5.36291e-18
5.36291e-18
5.36291e-18
0.0100815
0.0100815
0.0100815
0.0100815
0.0100815
0.0100815
0.0100815
0.0100815
0.0100815
0.0100815
0.0100815
0.0100815
0.0100815
0.0100815
0.0100815
0.0100815
0.0100815
0.0100815
0.0100815
0.0100815
0.0100815
0.0100815
0.0100815
0.0100815
0.010081
0.0100792
0.0100739
0.0100622
0.0100413
0.0100082
0.00996051
0.00989676
0.00981614
0.00971865
0.00960491
0.00947607
0.00933361
0.00917922
0.00901466
0.00884173
0.00866213
0.00847746
0.00828919
0.00809863
0.00790695
0.00771516
0.00752413
0.0073346
0.00714718
0.0069624
0.00678068
0.00660235
0.00642768
0.00625687
0.00609007
0.00592739
0.00576888
0.00561457
0.00546444
0.00531845
0.00517651
0.00503852
0.00490435
0.00477386
0.0046469
0.00452331
0.00440294
0.00428566
0.00417134
0.00405985
0.00395106
0.00384486
0.00374114
0.00363979
0.00354071
0.00344383
0.00334904
0.00325627
0.00316545
0.0030765
0.00298936
0.00290395
0.00282022
0.0027381
0.00265756
0.00257852
0.00250094
0.00242478
0.00234999
0.00227654
0.00220437
0.00213347
0.00206378
0.00199528
0.00192793
0.00186169
0.00179653
0.00173242
0.00166933
0.00160722
0.00154608
0.0014859
0.00142666
0.00136832
0.00131078
0.00125395
0.00119774
0.00114222
0.0010877
0.00103474
0.000983869
0.000935083
0.000887105
0.000836786
0.000778709
0.000705451
0.000609577
0.000488705
0.000351789
0.00021955
0.000114336
4.72715e-05
1.44193e-05
2.91233e-06
3.34593e-07
1.78843e-08
3.51143e-10
2.12809e-12
1.68099e-13
1.6583e-13
1.65775e-13
1.65066e-13
1.62191e-13
1.55936e-13
1.46515e-13
1.35353e-13
1.24077e-13
1.13668e-13
1.04315e-13
9.57483e-14
8.75901e-14
7.95521e-14
7.14871e-14
6.33656e-14
5.52247e-14
4.71194e-14
3.90945e-14
3.11846e-14
2.34397e-14
1.59871e-14
9.16864e-15
3.75145e-15
7.63789e-16
4.60226e-17
5.76988e-18
5.36802e-18
5.36296e-18
5.36291e-18
5.36291e-18
5.36291e-18
5.36291e-18
5.36291e-18
5.36291e-18
5.36291e-18
5.36291e-18
5.36291e-18
0.0100815
0.0100815
0.0100815
0.0100815
0.0100815
0.0100815
0.0100815
0.0100815
0.0100815
0.0100815
0.0100815
0.0100815
0.0100815
0.0100815
0.0100815
0.0100815
0.0100815
0.0100815
0.0100815
0.0100815
0.0100815
0.0100815
0.0100815
0.0100815
0.010081
0.0100792
0.0100739
0.0100622
0.0100413
0.0100082
0.00996051
0.00989676
0.00981614
0.00971865
0.00960491
0.00947607
0.00933361
0.00917921
0.00901466
0.00884173
0.00866213
0.00847746
0.00828919
0.00809863
0.00790695
0.00771516
0.00752413
0.0073346
0.00714718
0.0069624
0.00678068
0.00660235
0.00642768
0.00625687
0.00609007
0.00592739
0.00576888
0.00561457
0.00546444
0.00531845
0.00517651
0.00503852
0.00490435
0.00477386
0.0046469
0.00452331
0.00440294
0.00428566
0.00417134
0.00405985
0.00395106
0.00384486
0.00374114
0.00363979
0.00354071
0.00344383
0.00334904
0.00325627
0.00316545
0.0030765
0.00298936
0.00290395
0.00282022
0.0027381
0.00265755
0.00257852
0.00250094
0.00242478
0.00234999
0.00227654
0.00220437
0.00213347
0.00206378
0.00199528
0.00192793
0.00186169
0.00179653
0.00173242
0.00166933
0.00160722
0.00154608
0.0014859
0.00142666
0.00136832
0.00131078
0.00125395
0.00119774
0.00114222
0.0010877
0.00103473
0.000983868
0.000935082
0.000887103
0.000836784
0.000778707
0.000705448
0.000609573
0.0004887
0.000351785
0.000219546
0.000114333
4.72705e-05
1.4419e-05
2.91228e-06
3.3459e-07
1.78843e-08
3.51146e-10
2.12813e-12
1.681e-13
1.65831e-13
1.65776e-13
1.65067e-13
1.62191e-13
1.55937e-13
1.46515e-13
1.35353e-13
1.24078e-13
1.13668e-13
1.04316e-13
9.57485e-14
8.75903e-14
7.95523e-14
7.14872e-14
6.33657e-14
5.52248e-14
4.71195e-14
3.90946e-14
3.11847e-14
2.34398e-14
1.59872e-14
9.16869e-15
3.75149e-15
7.638e-16
4.60236e-17
5.7699e-18
5.36802e-18
5.36296e-18
5.36291e-18
5.36291e-18
5.36291e-18
5.36291e-18
5.36291e-18
5.36291e-18
5.36291e-18
5.36291e-18
5.36291e-18
0.0100815
0.0100815
0.0100815
0.0100815
0.0100815
0.0100815
0.0100815
0.0100815
0.0100815
0.0100815
0.0100815
0.0100815
0.0100815
0.0100815
0.0100815
0.0100815
0.0100815
0.0100815
0.0100815
0.0100815
0.0100815
0.0100815
0.0100815
0.0100815
0.010081
0.0100792
0.0100739
0.0100622
0.0100413
0.0100082
0.00996051
0.00989676
0.00981614
0.00971865
0.00960491
0.00947607
0.00933361
0.00917921
0.00901466
0.00884173
0.00866213
0.00847746
0.00828919
0.00809863
0.00790695
0.00771516
0.00752413
0.00733459
0.00714718
0.0069624
0.00678068
0.00660235
0.00642768
0.00625687
0.00609007
0.00592739
0.00576888
0.00561457
0.00546444
0.00531845
0.00517651
0.00503852
0.00490435
0.00477386
0.0046469
0.00452331
0.00440294
0.00428566
0.00417134
0.00405985
0.00395106
0.00384486
0.00374114
0.00363979
0.00354071
0.00344383
0.00334904
0.00325627
0.00316545
0.0030765
0.00298935
0.00290395
0.00282022
0.0027381
0.00265755
0.00257852
0.00250094
0.00242478
0.00234999
0.00227653
0.00220437
0.00213347
0.00206378
0.00199528
0.00192792
0.00186169
0.00179653
0.00173242
0.00166932
0.00160722
0.00154608
0.0014859
0.00142666
0.00136831
0.00131078
0.00125395
0.00119774
0.00114222
0.0010877
0.00103473
0.000983867
0.000935081
0.000887102
0.000836783
0.000778705
0.000705445
0.000609569
0.000488695
0.000351779
0.000219542
0.00011433
4.72691e-05
1.44186e-05
2.91218e-06
3.3458e-07
1.7884e-08
3.51144e-10
2.12815e-12
1.681e-13
1.65831e-13
1.65777e-13
1.65067e-13
1.62192e-13
1.55938e-13
1.46516e-13
1.35354e-13
1.24078e-13
1.13669e-13
1.04316e-13
9.57488e-14
8.75905e-14
7.95525e-14
7.14874e-14
6.33659e-14
5.5225e-14
4.71196e-14
3.90947e-14
3.11848e-14
2.34399e-14
1.59872e-14
9.16874e-15
3.75152e-15
7.63811e-16
4.60246e-17
5.76991e-18
5.36802e-18
5.36296e-18
5.36291e-18
5.36291e-18
5.36291e-18
5.36291e-18
5.36291e-18
5.36291e-18
5.36291e-18
5.36291e-18
5.36291e-18
0.0100815
0.0100815
0.0100815
0.0100815
0.0100815
0.0100815
0.0100815
0.0100815
0.0100815
0.0100815
0.0100815
0.0100815
0.0100815
0.0100815
0.0100815
0.0100815
0.0100815
0.0100815
0.0100815
0.0100815
0.0100815
0.0100815
0.0100815
0.0100815
0.010081
0.0100792
0.0100739
0.0100622
0.0100413
0.0100082
0.00996051
0.00989676
0.00981614
0.00971865
0.00960491
0.00947607
0.00933361
0.00917921
0.00901466
0.00884173
0.00866212
0.00847746
0.00828919
0.00809863
0.00790695
0.00771516
0.00752413
0.00733459
0.00714718
0.0069624
0.00678068
0.00660235
0.00642768
0.00625687
0.00609007
0.00592739
0.00576888
0.00561457
0.00546444
0.00531845
0.00517651
0.00503851
0.00490435
0.00477386
0.0046469
0.00452331
0.00440294
0.00428566
0.00417134
0.00405985
0.00395106
0.00384486
0.00374114
0.00363979
0.00354071
0.00344383
0.00334904
0.00325627
0.00316545
0.0030765
0.00298935
0.00290395
0.00282022
0.0027381
0.00265755
0.00257851
0.00250094
0.00242478
0.00234999
0.00227653
0.00220437
0.00213347
0.00206378
0.00199528
0.00192792
0.00186169
0.00179653
0.00173242
0.00166932
0.00160722
0.00154608
0.0014859
0.00142666
0.00136831
0.00131078
0.00125395
0.00119774
0.00114222
0.0010877
0.00103473
0.000983866
0.00093508
0.000887101
0.000836781
0.000778703
0.000705443
0.000609566
0.000488691
0.000351775
0.000219538
0.000114328
4.72677e-05
1.44181e-05
2.91208e-06
3.34569e-07
1.78834e-08
3.51134e-10
2.12811e-12
1.68101e-13
1.65832e-13
1.65777e-13
1.65068e-13
1.62193e-13
1.55938e-13
1.46516e-13
1.35354e-13
1.24079e-13
1.13669e-13
1.04316e-13
9.57491e-14
8.75908e-14
7.95527e-14
7.14876e-14
6.3366e-14
5.52251e-14
4.71197e-14
3.90948e-14
3.11849e-14
2.34399e-14
1.59873e-14
9.16879e-15
3.75155e-15
7.63822e-16
4.60255e-17
5.76992e-18
5.36802e-18
5.36296e-18
5.36291e-18
5.36291e-18
5.36291e-18
5.36291e-18
5.36291e-18
5.36291e-18
5.36291e-18
5.36291e-18
5.36291e-18
0.0100815
0.0100815
0.0100815
0.0100815
0.0100815
0.0100815
0.0100815
0.0100815
0.0100815
0.0100815
0.0100815
0.0100815
0.0100815
0.0100815
0.0100815
0.0100815
0.0100815
0.0100815
0.0100815
0.0100815
0.0100815
0.0100815
0.0100815
0.0100815
0.010081
0.0100792
0.0100739
0.0100622
0.0100413
0.0100082
0.00996051
0.00989676
0.00981614
0.00971864
0.00960491
0.00947607
0.00933361
0.00917921
0.00901466
0.00884173
0.00866212
0.00847746
0.00828919
0.00809863
0.00790695
0.00771516
0.00752413
0.00733459
0.00714718
0.0069624
0.00678068
0.00660235
0.00642767
0.00625687
0.00609007
0.00592739
0.00576888
0.00561457
0.00546444
0.00531844
0.0051765
0.00503851
0.00490434
0.00477386
0.0046469
0.00452331
0.00440293
0.00428566
0.00417134
0.00405984
0.00395106
0.00384486
0.00374114
0.00363979
0.00354071
0.00344382
0.00334904
0.00325627
0.00316545
0.0030765
0.00298935
0.00290395
0.00282022
0.0027381
0.00265755
0.00257851
0.00250094
0.00242478
0.00234999
0.00227653
0.00220437
0.00213347
0.00206378
0.00199528
0.00192792
0.00186169
0.00179653
0.00173242
0.00166932
0.00160722
0.00154608
0.0014859
0.00142666
0.00136831
0.00131078
0.00125395
0.00119774
0.00114222
0.0010877
0.00103473
0.000983866
0.000935079
0.0008871
0.000836781
0.000778702
0.000705441
0.000609563
0.000488688
0.000351771
0.000219535
0.000114326
4.72668e-05
1.44178e-05
2.91201e-06
3.34559e-07
1.78828e-08
3.51124e-10
2.12806e-12
1.68101e-13
1.65833e-13
1.65778e-13
1.65069e-13
1.62193e-13
1.55939e-13
1.46517e-13
1.35355e-13
1.24079e-13
1.13669e-13
1.04316e-13
9.57493e-14
8.7591e-14
7.95529e-14
7.14877e-14
6.33662e-14
5.52252e-14
4.71198e-14
3.90949e-14
3.1185e-14
2.344e-14
1.59874e-14
9.16884e-15
3.75158e-15
7.63832e-16
4.60264e-17
5.76993e-18
5.36802e-18
5.36296e-18
5.36291e-18
5.36291e-18
5.36291e-18
5.36291e-18
5.36291e-18
5.36291e-18
5.36291e-18
5.36291e-18
5.36291e-18
0.0100815
0.0100815
0.0100815
0.0100815
0.0100815
0.0100815
0.0100815
0.0100815
0.0100815
0.0100815
0.0100815
0.0100815
0.0100815
0.0100815
0.0100815
0.0100815
0.0100815
0.0100815
0.0100815
0.0100815
0.0100815
0.0100815
0.0100815
0.0100815
0.010081
0.0100792
0.0100739
0.0100622
0.0100413
0.0100082
0.00996051
0.00989676
0.00981614
0.00971864
0.00960491
0.00947607
0.00933361
0.00917921
0.00901466
0.00884172
0.00866212
0.00847745
0.00828918
0.00809863
0.00790695
0.00771516
0.00752413
0.00733459
0.00714718
0.0069624
0.00678067
0.00660234
0.00642767
0.00625686
0.00609007
0.00592739
0.00576888
0.00561457
0.00546444
0.00531844
0.0051765
0.00503851
0.00490434
0.00477385
0.0046469
0.00452331
0.00440293
0.00428565
0.00417133
0.00405984
0.00395106
0.00384486
0.00374114
0.00363979
0.00354071
0.00344382
0.00334904
0.00325627
0.00316545
0.0030765
0.00298935
0.00290395
0.00282021
0.0027381
0.00265755
0.00257851
0.00250094
0.00242478
0.00234999
0.00227653
0.00220437
0.00213347
0.00206378
0.00199528
0.00192792
0.00186169
0.00179653
0.00173242
0.00166932
0.00160722
0.00154608
0.0014859
0.00142666
0.00136831
0.00131078
0.00125395
0.00119774
0.00114222
0.0010877
0.00103473
0.000983865
0.000935079
0.0008871
0.00083678
0.000778701
0.00070544
0.000609561
0.000488685
0.000351769
0.000219533
0.000114325
4.72662e-05
1.44175e-05
2.91196e-06
3.34553e-07
1.78825e-08
3.51116e-10
2.12801e-12
1.68102e-13
1.65833e-13
1.65778e-13
1.65069e-13
1.62194e-13
1.55939e-13
1.46517e-13
1.35355e-13
1.24079e-13
1.1367e-13
1.04317e-13
9.57496e-14
8.75912e-14
7.95531e-14
7.14879e-14
6.33663e-14
5.52254e-14
4.71199e-14
3.9095e-14
3.11851e-14
2.34401e-14
1.59874e-14
9.16889e-15
3.75161e-15
7.63842e-16
4.60273e-17
5.76994e-18
5.36802e-18
5.36296e-18
5.36291e-18
5.36291e-18
5.36291e-18
5.36291e-18
5.36291e-18
5.36291e-18
5.36291e-18
5.36291e-18
5.36291e-18
0.0100815
0.0100815
0.0100815
0.0100815
0.0100815
0.0100815
0.0100815
0.0100815
0.0100815
0.0100815
0.0100815
0.0100815
0.0100815
0.0100815
0.0100815
0.0100815
0.0100815
0.0100815
0.0100815
0.0100815
0.0100815
0.0100815
0.0100815
0.0100815
0.010081
0.0100792
0.0100739
0.0100622
0.0100413
0.0100082
0.00996051
0.00989676
0.00981614
0.00971864
0.00960491
0.00947607
0.00933361
0.00917921
0.00901466
0.00884172
0.00866212
0.00847745
0.00828918
0.00809863
0.00790695
0.00771516
0.00752412
0.00733459
0.00714718
0.0069624
0.00678067
0.00660234
0.00642767
0.00625686
0.00609007
0.00592739
0.00576888
0.00561457
0.00546444
0.00531844
0.0051765
0.00503851
0.00490434
0.00477385
0.00464689
0.00452331
0.00440293
0.00428565
0.00417133
0.00405984
0.00395106
0.00384486
0.00374114
0.00363978
0.00354071
0.00344382
0.00334904
0.00325627
0.00316545
0.0030765
0.00298935
0.00290395
0.00282021
0.0027381
0.00265755
0.00257851
0.00250094
0.00242478
0.00234999
0.00227653
0.00220437
0.00213347
0.00206378
0.00199528
0.00192792
0.00186169
0.00179653
0.00173242
0.00166932
0.00160722
0.00154608
0.0014859
0.00142666
0.00136831
0.00131078
0.00125395
0.00119774
0.00114222
0.0010877
0.00103473
0.000983864
0.000935078
0.000887099
0.000836779
0.0007787
0.000705439
0.00060956
0.000488684
0.000351767
0.000219532
0.000114324
4.72657e-05
1.44174e-05
2.91192e-06
3.34548e-07
1.78822e-08
3.51111e-10
2.12798e-12
1.68102e-13
1.65833e-13
1.65779e-13
1.6507e-13
1.62194e-13
1.5594e-13
1.46518e-13
1.35356e-13
1.2408e-13
1.1367e-13
1.04317e-13
9.57499e-14
8.75915e-14
7.95533e-14
7.14881e-14
6.33665e-14
5.52255e-14
4.71201e-14
3.90951e-14
3.11852e-14
2.34402e-14
1.59875e-14
9.16894e-15
3.75164e-15
7.63851e-16
4.60281e-17
5.76995e-18
5.36802e-18
5.36296e-18
5.36291e-18
5.36291e-18
5.36291e-18
5.36291e-18
5.36291e-18
5.36291e-18
5.36291e-18
5.36291e-18
5.36291e-18
0.0100815
0.0100815
0.0100815
0.0100815
0.0100815
0.0100815
0.0100815
0.0100815
0.0100815
0.0100815
0.0100815
0.0100815
0.0100815
0.0100815
0.0100815
0.0100815
0.0100815
0.0100815
0.0100815
0.0100815
0.0100815
0.0100815
0.0100815
0.0100815
0.010081
0.0100792
0.0100739
0.0100622
0.0100413
0.0100082
0.00996051
0.00989676
0.00981614
0.00971864
0.00960491
0.00947607
0.0093336
0.00917921
0.00901466
0.00884172
0.00866212
0.00847745
0.00828918
0.00809863
0.00790695
0.00771516
0.00752412
0.00733459
0.00714718
0.0069624
0.00678067
0.00660234
0.00642767
0.00625686
0.00609007
0.00592738
0.00576888
0.00561457
0.00546444
0.00531844
0.0051765
0.00503851
0.00490434
0.00477385
0.00464689
0.00452331
0.00440293
0.00428565
0.00417133
0.00405984
0.00395106
0.00384486
0.00374113
0.00363978
0.00354071
0.00344382
0.00334904
0.00325627
0.00316545
0.0030765
0.00298935
0.00290394
0.00282021
0.0027381
0.00265755
0.00257851
0.00250094
0.00242478
0.00234999
0.00227653
0.00220437
0.00213347
0.00206378
0.00199528
0.00192792
0.00186168
0.00179653
0.00173242
0.00166932
0.00160722
0.00154608
0.0014859
0.00142666
0.00136831
0.00131078
0.00125395
0.00119774
0.00114222
0.00108769
0.00103473
0.000983864
0.000935078
0.000887099
0.000836779
0.000778699
0.000705438
0.000609559
0.000488682
0.000351766
0.000219531
0.000114323
4.72654e-05
1.44173e-05
2.91189e-06
3.34545e-07
1.7882e-08
3.51107e-10
2.12796e-12
1.68102e-13
1.65834e-13
1.65779e-13
1.6507e-13
1.62194e-13
1.5594e-13
1.46518e-13
1.35356e-13
1.2408e-13
1.1367e-13
1.04317e-13
9.57502e-14
8.75917e-14
7.95535e-14
7.14883e-14
6.33667e-14
5.52257e-14
4.71202e-14
3.90953e-14
3.11853e-14
2.34403e-14
1.59876e-14
9.16899e-15
3.75167e-15
7.6386e-16
4.60289e-17
5.76996e-18
5.36802e-18
5.36296e-18
5.36291e-18
5.36291e-18
5.36291e-18
5.36291e-18
5.36291e-18
5.36291e-18
5.36291e-18
5.36291e-18
5.36291e-18
0.0100815
0.0100815
0.0100815
0.0100815
0.0100815
0.0100815
0.0100815
0.0100815
0.0100815
0.0100815
0.0100815
0.0100815
0.0100815
0.0100815
0.0100815
0.0100815
0.0100815
0.0100815
0.0100815
0.0100815
0.0100815
0.0100815
0.0100815
0.0100815
0.010081
0.0100792
0.0100739
0.0100622
0.0100413
0.0100082
0.00996051
0.00989676
0.00981614
0.00971864
0.00960491
0.00947607
0.0093336
0.00917921
0.00901466
0.00884172
0.00866212
0.00847745
0.00828918
0.00809863
0.00790695
0.00771515
0.00752412
0.00733459
0.00714717
0.0069624
0.00678067
0.00660234
0.00642767
0.00625686
0.00609007
0.00592738
0.00576888
0.00561457
0.00546444
0.00531844
0.0051765
0.00503851
0.00490434
0.00477385
0.00464689
0.0045233
0.00440293
0.00428565
0.00417133
0.00405984
0.00395106
0.00384486
0.00374113
0.00363978
0.00354071
0.00344382
0.00334904
0.00325627
0.00316545
0.0030765
0.00298935
0.00290394
0.00282021
0.0027381
0.00265755
0.00257851
0.00250094
0.00242478
0.00234999
0.00227653
0.00220437
0.00213347
0.00206378
0.00199528
0.00192792
0.00186168
0.00179653
0.00173242
0.00166932
0.00160722
0.00154608
0.0014859
0.00142666
0.00136831
0.00131078
0.00125395
0.00119774
0.00114222
0.00108769
0.00103473
0.000983864
0.000935077
0.000887098
0.000836778
0.000778699
0.000705437
0.000609558
0.000488681
0.000351765
0.00021953
0.000114322
4.72651e-05
1.44172e-05
2.91187e-06
3.34542e-07
1.78819e-08
3.51103e-10
2.12794e-12
1.68103e-13
1.65834e-13
1.65779e-13
1.6507e-13
1.62195e-13
1.5594e-13
1.46518e-13
1.35356e-13
1.24081e-13
1.13671e-13
1.04318e-13
9.57505e-14
8.7592e-14
7.95538e-14
7.14885e-14
6.33669e-14
5.52258e-14
4.71203e-14
3.90954e-14
3.11854e-14
2.34404e-14
1.59876e-14
9.16904e-15
3.75169e-15
7.63869e-16
4.60296e-17
5.76997e-18
5.36802e-18
5.36296e-18
5.36291e-18
5.36291e-18