/*--------------------------------*- C++ -*----------------------------------*\
  =========                 |
  \\      /  F ield         | OpenFOAM: The Open Source CFD Toolbox
   \\    /   O peration     | Website:  https://openfoam.org
    \\  /    A nd           | Version:  13
     \\/     M anipulation  |
\*---------------------------------------------------------------------------*/
FoamFile
{
    format      ascii;
    class       volScalarField;
    location    "0.0011";
    object      H2O;
}
// * * * * * * * * * * * * * * * * * * * * * * * * * * * * * * * * * * * * * //

dimensions      [];

internalField   nonuniform List<scalar> 
33334
(
0.00825364
0.00825364
0.00825364
0.00825364
0.00825364
0.00825364
0.00825364
0.00825364
0.00825364
0.00825364
0.00825364
0.00825364
0.00825364
0.00825364
0.00825364
0.00825364
0.00825364
0.00825364
0.00825364
0.00825364
0.00825364
0.00825364
0.00825364
0.0082536
0.00825327
0.00825175
0.00824738
0.00823786
0.00822072
0.00819359
0.00815458
0.0081024
0.0080364
0.00795658
0.00786346
0.00775798
0.00764135
0.00751495
0.00738023
0.00723865
0.00709161
0.00694043
0.00678629
0.00663029
0.00647336
0.00631634
0.00615994
0.00600477
0.00585134
0.00570006
0.00555128
0.00540528
0.00526228
0.00512244
0.00498588
0.00485269
0.00472292
0.00459659
0.00447367
0.00435415
0.00423794
0.00412497
0.00401512
0.00390829
0.00380435
0.00370316
0.00360461
0.00350859
0.003415
0.00332372
0.00323466
0.00314771
0.00306279
0.00297981
0.0028987
0.00281938
0.00274177
0.00266582
0.00259147
0.00251864
0.00244729
0.00237737
0.00230882
0.00224159
0.00217564
0.00211093
0.00204742
0.00198507
0.00192384
0.0018637
0.00180462
0.00174656
0.00168951
0.00163343
0.00157828
0.00152405
0.00147071
0.00141822
0.00136656
0.00131571
0.00126566
0.00121639
0.00116789
0.00112012
0.00107302
0.00102649
0.000980468
0.00093501
0.000890374
0.000847015
0.000805375
0.000765437
0.000726155
0.000684946
0.000637369
0.000577343
0.000498789
0.000399781
0.000287683
0.000179473
9.3426e-05
3.86091e-05
1.17712e-05
2.37612e-06
2.72806e-07
1.45699e-08
2.85794e-10
1.73109e-12
1.37623e-13
1.35782e-13
1.35737e-13
1.35155e-13
1.32798e-13
1.27674e-13
1.19958e-13
1.10818e-13
1.01586e-13
9.3064e-14
8.54068e-14
7.83928e-14
7.17132e-14
6.5132e-14
5.85287e-14
5.18791e-14
4.52137e-14
3.85775e-14
3.20072e-14
2.55311e-14
1.91901e-14
1.30885e-14
7.50617e-15
3.07114e-15
6.25244e-16
3.76719e-17
4.72367e-18
4.39475e-18
4.39061e-18
4.39057e-18
4.39057e-18
4.39057e-18
4.39057e-18
4.39057e-18
4.39057e-18
4.39057e-18
4.39057e-18
4.39057e-18
0.00825364
0.00825364
0.00825364
0.00825364
0.00825364
0.00825364
0.00825364
0.00825364
0.00825364
0.00825364
0.00825364
0.00825364
0.00825364
0.00825364
0.00825364
0.00825364
0.00825364
0.00825364
0.00825364
0.00825364
0.00825364
0.00825364
0.00825364
0.0082536
0.00825327
0.00825175
0.00824738
0.00823786
0.00822072
0.00819359
0.00815458
0.0081024
0.00803639
0.00795658
0.00786346
0.00775798
0.00764135
0.00751495
0.00738023
0.00723865
0.00709162
0.00694043
0.00678629
0.00663029
0.00647336
0.00631634
0.00615995
0.00600478
0.00585134
0.00570006
0.00555129
0.00540529
0.00526229
0.00512244
0.00498589
0.0048527
0.00472293
0.0045966
0.00447369
0.00435416
0.00423795
0.00412498
0.00401514
0.0039083
0.00380436
0.00370318
0.00360463
0.00350861
0.00341502
0.00332374
0.00323468
0.00314773
0.00306281
0.00297984
0.00289872
0.0028194
0.0027418
0.00266585
0.00259149
0.00251867
0.00244732
0.0023774
0.00230885
0.00224162
0.00217567
0.00211096
0.00204745
0.0019851
0.00192387
0.00186373
0.00180465
0.0017466
0.00168954
0.00163346
0.00157832
0.00152409
0.00147074
0.00141825
0.0013666
0.00131575
0.00126569
0.00121642
0.00116792
0.00112015
0.00107305
0.00102652
0.000980504
0.000935047
0.000890411
0.000847051
0.00080541
0.000765471
0.00072619
0.000684985
0.000637415
0.000577402
0.000498863
0.000399865
0.000287764
0.000179537
9.3465e-05
3.86275e-05
1.17774e-05
2.37755e-06
2.72997e-07
1.45823e-08
2.8609e-10
1.7331e-12
1.37623e-13
1.35779e-13
1.35734e-13
1.35153e-13
1.32796e-13
1.27673e-13
1.19958e-13
1.10818e-13
1.01586e-13
9.30638e-14
8.54065e-14
7.83924e-14
7.17128e-14
6.51316e-14
5.85283e-14
5.18788e-14
4.52135e-14
3.85773e-14
3.2007e-14
2.5531e-14
1.919e-14
1.30885e-14
7.50616e-15
3.07115e-15
6.2525e-16
3.76728e-17
4.72368e-18
4.39475e-18
4.39061e-18
4.39057e-18
4.39057e-18
4.39057e-18
4.39057e-18
4.39057e-18
4.39057e-18
4.39057e-18
4.39057e-18
4.39057e-18
0.00825364
0.00825364
0.00825364
0.00825364
0.00825364
0.00825364
0.00825364
0.00825364
0.00825364
0.00825364
0.00825364
0.00825364
0.00825364
0.00825364
0.00825364
0.00825364
0.00825364
0.00825364
0.00825364
0.00825364
0.00825364
0.00825364
0.00825364
0.0082536
0.00825327
0.00825175
0.00824738
0.00823786
0.00822072
0.00819359
0.00815458
0.00810239
0.00803639
0.00795657
0.00786346
0.00775798
0.00764135
0.00751495
0.00738023
0.00723865
0.00709162
0.00694043
0.00678629
0.00663029
0.00647336
0.00631634
0.00615995
0.00600478
0.00585134
0.00570006
0.00555129
0.00540529
0.00526229
0.00512245
0.00498589
0.00485271
0.00472294
0.0045966
0.00447369
0.00435417
0.00423796
0.00412499
0.00401515
0.00390832
0.00380437
0.00370319
0.00360464
0.00350863
0.00341503
0.00332376
0.00323469
0.00314775
0.00306283
0.00297986
0.00289874
0.00281942
0.00274182
0.00266587
0.00259152
0.00251869
0.00244735
0.00237742
0.00230887
0.00224165
0.0021757
0.00211099
0.00204748
0.00198513
0.0019239
0.00186376
0.00180468
0.00174663
0.00168958
0.00163349
0.00157835
0.00152412
0.00147078
0.00141829
0.00136663
0.00131579
0.00126573
0.00121646
0.00116796
0.0011202
0.0010731
0.00102657
0.000980548
0.000935091
0.000890455
0.000847094
0.000805452
0.000765512
0.000726232
0.000685032
0.000637473
0.000577478
0.000498961
0.00039998
0.00028788
0.000179632
9.35273e-05
3.86586e-05
1.17887e-05
2.38018e-06
2.73346e-07
1.46038e-08
2.86581e-10
1.73629e-12
1.37622e-13
1.35773e-13
1.35728e-13
1.35147e-13
1.32792e-13
1.2767e-13
1.19955e-13
1.10817e-13
1.01585e-13
9.30622e-14
8.54048e-14
7.83907e-14
7.17113e-14
6.51303e-14
5.85271e-14
5.18778e-14
4.52127e-14
3.85766e-14
3.20065e-14
2.55306e-14
1.91898e-14
1.30884e-14
7.50612e-15
3.07115e-15
6.25259e-16
3.76738e-17
4.72369e-18
4.39475e-18
4.39061e-18
4.39057e-18
4.39057e-18
4.39057e-18
4.39057e-18
4.39057e-18
4.39057e-18
4.39057e-18
4.39057e-18
4.39057e-18
0.00825364
0.00825364
0.00825364
0.00825364
0.00825364
0.00825364
0.00825364
0.00825364
0.00825364
0.00825364
0.00825364
0.00825364
0.00825364
0.00825364
0.00825364
0.00825364
0.00825364
0.00825364
0.00825364
0.00825364
0.00825364
0.00825364
0.00825364
0.0082536
0.00825327
0.00825175
0.00824738
0.00823786
0.00822072
0.00819359
0.00815458
0.00810239
0.00803639
0.00795657
0.00786346
0.00775798
0.00764135
0.00751495
0.00738023
0.00723865
0.00709161
0.00694043
0.00678629
0.00663029
0.00647336
0.00631634
0.00615995
0.00600478
0.00585134
0.00570006
0.00555129
0.00540529
0.00526229
0.00512245
0.00498589
0.00485271
0.00472294
0.00459661
0.0044737
0.00435417
0.00423797
0.00412499
0.00401515
0.00390832
0.00380438
0.0037032
0.00360465
0.00350863
0.00341504
0.00332376
0.0032347
0.00314776
0.00306284
0.00297986
0.00289875
0.00281943
0.00274183
0.00266588
0.00259153
0.0025187
0.00244736
0.00237743
0.00230888
0.00224166
0.00217571
0.00211101
0.00204749
0.00198514
0.00192391
0.00186378
0.0018047
0.00174665
0.00168959
0.00163351
0.00157837
0.00152414
0.0014708
0.00141831
0.00136666
0.00131581
0.00126575
0.00121648
0.00116798
0.00112022
0.00107312
0.00102659
0.000980573
0.000935116
0.00089048
0.00084712
0.000805476
0.000765536
0.000726257
0.000685059
0.000637509
0.000577527
0.000499026
0.000400059
0.000287963
0.000179703
9.35764e-05
3.86844e-05
1.17984e-05
2.38254e-06
2.73666e-07
1.46238e-08
2.87034e-10
1.7392e-12
1.3762e-13
1.35768e-13
1.35723e-13
1.35142e-13
1.32788e-13
1.27667e-13
1.19952e-13
1.10814e-13
1.01583e-13
9.30602e-14
8.5403e-14
7.83891e-14
7.17099e-14
6.51291e-14
5.85261e-14
5.1877e-14
4.5212e-14
3.85761e-14
3.20062e-14
2.55304e-14
1.91897e-14
1.30883e-14
7.50613e-15
3.07117e-15
6.25269e-16
3.76748e-17
4.72371e-18
4.39475e-18
4.39061e-18
4.39057e-18
4.39057e-18
4.39057e-18
4.39057e-18
4.39057e-18
4.39057e-18
4.39057e-18
4.39057e-18
4.39057e-18
0.00825364
0.00825364
0.00825364
0.00825364
0.00825364
0.00825364
0.00825364
0.00825364
0.00825364
0.00825364
0.00825364
0.00825364
0.00825364
0.00825364
0.00825364
0.00825364
0.00825364
0.00825364
0.00825364
0.00825364
0.00825364
0.00825364
0.00825364
0.0082536
0.00825327
0.00825175
0.00824738
0.00823786
0.00822072
0.00819359
0.00815458
0.00810239
0.00803639
0.00795657
0.00786346
0.00775798
0.00764135
0.00751495
0.00738023
0.00723865
0.00709161
0.00694043
0.00678629
0.00663029
0.00647336
0.00631634
0.00615994
0.00600477
0.00585134
0.00570006
0.00555129
0.00540529
0.00526229
0.00512245
0.00498589
0.00485271
0.00472294
0.0045966
0.0044737
0.00435417
0.00423796
0.00412499
0.00401515
0.00390832
0.00380438
0.0037032
0.00360465
0.00350863
0.00341504
0.00332376
0.0032347
0.00314776
0.00306284
0.00297986
0.00289875
0.00281943
0.00274183
0.00266588
0.00259153
0.00251871
0.00244736
0.00237744
0.00230889
0.00224166
0.00217572
0.00211101
0.0020475
0.00198515
0.00192392
0.00186378
0.0018047
0.00174665
0.0016896
0.00163352
0.00157838
0.00152415
0.0014708
0.00141832
0.00136666
0.00131581
0.00126576
0.00121649
0.00116799
0.00112023
0.00107313
0.0010266
0.000980581
0.000935125
0.000890489
0.000847128
0.000805484
0.000765544
0.000726264
0.000685069
0.000637521
0.000577545
0.000499051
0.000400092
0.000287998
0.000179736
9.35993e-05
3.8697e-05
1.18033e-05
2.3838e-06
2.73846e-07
1.46356e-08
2.87312e-10
1.74103e-12
1.3762e-13
1.35765e-13
1.3572e-13
1.35139e-13
1.32785e-13
1.27664e-13
1.19951e-13
1.10812e-13
1.01581e-13
9.30591e-14
8.5402e-14
7.83883e-14
7.17092e-14
6.51286e-14
5.85257e-14
5.18767e-14
4.52118e-14
3.8576e-14
3.20062e-14
2.55304e-14
1.91897e-14
1.30884e-14
7.50616e-15
3.0712e-15
6.25279e-16
3.76757e-17
4.72372e-18
4.39475e-18
4.39061e-18
4.39057e-18
4.39057e-18
4.39057e-18
4.39057e-18
4.39057e-18
4.39057e-18
4.39057e-18
4.39057e-18
4.39057e-18
0.00825364
0.00825364
0.00825364
0.00825364
0.00825364
0.00825364
0.00825364
0.00825364
0.00825364
0.00825364
0.00825364
0.00825364
0.00825364
0.00825364
0.00825364
0.00825364
0.00825364
0.00825364
0.00825364
0.00825364
0.00825364
0.00825364
0.00825364
0.0082536
0.00825327
0.00825175
0.00824738
0.00823786
0.00822072
0.00819359
0.00815458
0.00810239
0.00803639
0.00795657
0.00786346
0.00775798
0.00764135
0.00751494
0.00738023
0.00723865
0.00709161
0.00694042
0.00678629
0.00663028
0.00647336
0.00631634
0.00615994
0.00600477
0.00585134
0.00570006
0.00555129
0.00540529
0.00526229
0.00512245
0.00498589
0.00485271
0.00472294
0.0045966
0.00447369
0.00435417
0.00423796
0.00412499
0.00401515
0.00390832
0.00380438
0.0037032
0.00360465
0.00350863
0.00341504
0.00332376
0.0032347
0.00314776
0.00306284
0.00297986
0.00289875
0.00281943
0.00274183
0.00266588
0.00259153
0.00251871
0.00244736
0.00237744
0.00230889
0.00224166
0.00217572
0.00211101
0.0020475
0.00198515
0.00192392
0.00186378
0.0018047
0.00174665
0.0016896
0.00163352
0.00157838
0.00152415
0.0014708
0.00141832
0.00136666
0.00131582
0.00126576
0.00121649
0.00116799
0.00112023
0.00107313
0.0010266
0.000980583
0.000935127
0.000890491
0.000847129
0.000805486
0.000765545
0.000726266
0.00068507
0.000637524
0.000577548
0.000499057
0.000400099
0.000288007
0.000179744
9.36056e-05
3.87006e-05
1.18048e-05
2.38422e-06
2.73912e-07
1.46402e-08
2.87431e-10
1.74187e-12
1.3762e-13
1.35764e-13
1.35719e-13
1.35138e-13
1.32784e-13
1.27664e-13
1.1995e-13
1.10812e-13
1.01581e-13
9.30588e-14
8.54018e-14
7.83881e-14
7.17091e-14
6.51285e-14
5.85257e-14
5.18767e-14
4.52118e-14
3.85761e-14
3.20062e-14
2.55304e-14
1.91898e-14
1.30884e-14
7.50621e-15
3.07123e-15
6.25289e-16
3.76766e-17
4.72373e-18
4.39475e-18
4.39061e-18
4.39057e-18
4.39057e-18
4.39057e-18
4.39057e-18
4.39057e-18
4.39057e-18
4.39057e-18
4.39057e-18
4.39057e-18
0.00825364
0.00825364
0.00825364
0.00825364
0.00825364
0.00825364
0.00825364
0.00825364
0.00825364
0.00825364
0.00825364
0.00825364
0.00825364
0.00825364
0.00825364
0.00825364
0.00825364
0.00825364
0.00825364
0.00825364
0.00825364
0.00825364
0.00825364
0.0082536
0.00825327
0.00825175
0.00824738
0.00823786
0.00822072
0.00819359
0.00815458
0.00810239
0.00803639
0.00795657
0.00786346
0.00775798
0.00764135
0.00751494
0.00738023
0.00723865
0.00709161
0.00694042
0.00678629
0.00663028
0.00647336
0.00631634
0.00615994
0.00600477
0.00585134
0.00570006
0.00555128
0.00540529
0.00526229
0.00512245
0.00498589
0.0048527
0.00472294
0.0045966
0.00447369
0.00435417
0.00423796
0.00412499
0.00401515
0.00390832
0.00380438
0.0037032
0.00360465
0.00350863
0.00341504
0.00332376
0.0032347
0.00314776
0.00306284
0.00297986
0.00289875
0.00281943
0.00274183
0.00266588
0.00259153
0.00251871
0.00244736
0.00237744
0.00230889
0.00224166
0.00217572
0.00211101
0.0020475
0.00198515
0.00192392
0.00186378
0.0018047
0.00174665
0.0016896
0.00163352
0.00157838
0.00152415
0.0014708
0.00141832
0.00136666
0.00131582
0.00126576
0.00121649
0.00116799
0.00112023
0.00107313
0.0010266
0.000980583
0.000935127
0.000890491
0.000847129
0.000805486
0.000765545
0.000726265
0.00068507
0.000637523
0.000577548
0.000499057
0.0004001
0.000288008
0.000179745
9.36063e-05
3.87011e-05
1.18051e-05
2.3843e-06
2.73927e-07
1.46415e-08
2.87468e-10
1.74216e-12
1.37621e-13
1.35764e-13
1.35719e-13
1.35138e-13
1.32784e-13
1.27664e-13
1.1995e-13
1.10812e-13
1.01581e-13
9.30588e-14
8.54018e-14
7.83882e-14
7.17091e-14
6.51285e-14
5.85257e-14
5.18768e-14
4.52119e-14
3.85761e-14
3.20063e-14
2.55305e-14
1.91898e-14
1.30885e-14
7.50625e-15
3.07126e-15
6.25299e-16
3.76775e-17
4.72374e-18
4.39475e-18
4.39061e-18
4.39057e-18
4.39057e-18
4.39057e-18
4.39057e-18
4.39057e-18
4.39057e-18
4.39057e-18
4.39057e-18
4.39057e-18
0.00825364
0.00825364
0.00825364
0.00825364
0.00825364
0.00825364
0.00825364
0.00825364
0.00825364
0.00825364
0.00825364
0.00825364
0.00825364
0.00825364
0.00825364
0.00825364
0.00825364
0.00825364
0.00825364
0.00825364
0.00825364
0.00825364
0.00825364
0.0082536
0.00825327
0.00825175
0.00824738
0.00823786
0.00822072
0.00819359
0.00815458
0.00810239
0.00803639
0.00795657
0.00786346
0.00775798
0.00764134
0.00751494
0.00738023
0.00723865
0.00709161
0.00694042
0.00678629
0.00663028
0.00647335
0.00631634
0.00615994
0.00600477
0.00585134
0.00570006
0.00555128
0.00540529
0.00526228
0.00512244
0.00498589
0.0048527
0.00472293
0.0045966
0.00447369
0.00435417
0.00423796
0.00412499
0.00401515
0.00390832
0.00380438
0.00370319
0.00360465
0.00350863
0.00341504
0.00332376
0.0032347
0.00314776
0.00306284
0.00297986
0.00289875
0.00281943
0.00274183
0.00266588
0.00259153
0.00251871
0.00244736
0.00237744
0.00230889
0.00224166
0.00217572
0.00211101
0.0020475
0.00198515
0.00192392
0.00186378
0.0018047
0.00174665
0.0016896
0.00163352
0.00157838
0.00152415
0.0014708
0.00141832
0.00136666
0.00131582
0.00126576
0.00121649
0.00116799
0.00112023
0.00107313
0.0010266
0.000980583
0.000935126
0.00089049
0.000847129
0.000805485
0.000765544
0.000726265
0.000685069
0.000637522
0.000577547
0.000499055
0.000400098
0.000288007
0.000179744
9.36057e-05
3.87008e-05
1.1805e-05
2.3843e-06
2.73928e-07
1.46417e-08
2.87478e-10
1.74225e-12
1.37621e-13
1.35764e-13
1.35719e-13
1.35138e-13
1.32784e-13
1.27664e-13
1.1995e-13
1.10812e-13
1.01581e-13
9.3059e-14
8.5402e-14
7.83883e-14
7.17093e-14
6.51286e-14
5.85258e-14
5.18769e-14
4.5212e-14
3.85762e-14
3.20063e-14
2.55306e-14
1.91899e-14
1.30885e-14
7.50629e-15
3.07128e-15
6.25308e-16
3.76783e-17
4.72375e-18
4.39475e-18
4.39061e-18
4.39057e-18
4.39057e-18
4.39057e-18
4.39057e-18
4.39057e-18
4.39057e-18
4.39057e-18
4.39057e-18
4.39057e-18
0.00825364
0.00825364
0.00825364
0.00825364
0.00825364
0.00825364
0.00825364
0.00825364
0.00825364
0.00825364
0.00825364
0.00825364
0.00825364
0.00825364
0.00825364
0.00825364
0.00825364
0.00825364
0.00825364
0.00825364
0.00825364
0.00825364
0.00825364
0.0082536
0.00825327
0.00825175
0.00824738
0.00823786
0.00822072
0.00819359
0.00815458
0.00810239
0.00803639
0.00795657
0.00786345
0.00775797
0.00764134
0.00751494
0.00738022
0.00723865
0.00709161
0.00694042
0.00678629
0.00663028
0.00647335
0.00631634
0.00615994
0.00600477
0.00585134
0.00570006
0.00555128
0.00540528
0.00526228
0.00512244
0.00498589
0.0048527
0.00472293
0.0045966
0.00447369
0.00435417
0.00423796
0.00412499
0.00401515
0.00390832
0.00380437
0.00370319
0.00360465
0.00350863
0.00341504
0.00332376
0.0032347
0.00314775
0.00306284
0.00297986
0.00289875
0.00281943
0.00274183
0.00266588
0.00259153
0.0025187
0.00244736
0.00237744
0.00230889
0.00224166
0.00217572
0.00211101
0.0020475
0.00198514
0.00192392
0.00186378
0.0018047
0.00174665
0.0016896
0.00163352
0.00157838
0.00152415
0.0014708
0.00141832
0.00136666
0.00131582
0.00126576
0.00121649
0.00116799
0.00112023
0.00107313
0.0010266
0.000980582
0.000935126
0.00089049
0.000847128
0.000805484
0.000765543
0.000726264
0.000685068
0.000637521
0.000577544
0.000499052
0.000400095
0.000288003
0.000179741
9.36038e-05
3.86999e-05
1.18047e-05
2.38426e-06
2.73926e-07
1.46417e-08
2.8748e-10
1.74229e-12
1.37622e-13
1.35764e-13
1.35719e-13
1.35139e-13
1.32785e-13
1.27664e-13
1.19951e-13
1.10813e-13
1.01581e-13
9.30593e-14
8.54022e-14
7.83885e-14
7.17094e-14
6.51288e-14
5.8526e-14
5.1877e-14
4.52121e-14
3.85763e-14
3.20064e-14
2.55306e-14
1.91899e-14
1.30886e-14
7.50633e-15
3.07131e-15
6.25317e-16
3.76791e-17
4.72376e-18
4.39475e-18
4.39061e-18
4.39057e-18
4.39057e-18
4.39057e-18
4.39057e-18
4.39057e-18
4.39057e-18
4.39057e-18
4.39057e-18
4.39057e-18
0.00825364
0.00825364
0.00825364
0.00825364
0.00825364
0.00825364
0.00825364
0.00825364
0.00825364
0.00825364
0.00825364
0.00825364
0.00825364
0.00825364
0.00825364
0.00825364
0.00825364
0.00825364
0.00825364
0.00825364
0.00825364
0.00825364
0.00825364
0.0082536
0.00825327
0.00825175
0.00824738
0.00823786
0.00822072
0.00819359
0.00815458
0.00810239
0.00803639
0.00795657
0.00786345
0.00775797
0.00764134
0.00751494
0.00738022
0.00723864
0.00709161
0.00694042
0.00678628
0.00663028
0.00647335
0.00631633
0.00615994
0.00600477
0.00585133
0.00570006
0.00555128
0.00540528
0.00526228
0.00512244
0.00498589
0.0048527
0.00472293
0.0045966
0.00447369
0.00435416
0.00423796
0.00412499
0.00401514
0.00390831
0.00380437
0.00370319
0.00360465
0.00350863
0.00341504
0.00332376
0.0032347
0.00314775
0.00306284
0.00297986
0.00289875
0.00281943
0.00274183
0.00266588
0.00259153
0.0025187
0.00244736
0.00237744
0.00230889
0.00224166
0.00217572
0.00211101
0.0020475
0.00198514
0.00192392
0.00186378
0.0018047
0.00174665
0.0016896
0.00163352
0.00157838
0.00152415
0.0014708
0.00141832
0.00136666
0.00131581
0.00126576
0.00121649
0.00116799
0.00112023
0.00107313
0.0010266
0.000980582
0.000935125
0.000890489
0.000847128
0.000805483
0.000765542
0.000726263
0.000685067
0.000637519
0.000577542
0.000499049
0.00040009
0.000287999
0.000179737
9.36014e-05
3.86988e-05
1.18043e-05
2.38418e-06
2.73918e-07
1.46414e-08
2.87478e-10
1.74229e-12
1.37622e-13
1.35765e-13
1.3572e-13
1.35139e-13
1.32785e-13
1.27665e-13
1.19951e-13
1.10813e-13
1.01582e-13
9.30596e-14
8.54025e-14
7.83887e-14
7.17096e-14
6.51289e-14
5.85261e-14
5.18771e-14
4.52122e-14
3.85764e-14
3.20065e-14
2.55307e-14
1.919e-14
1.30886e-14
7.50637e-15
3.07133e-15
6.25326e-16
3.76799e-17
4.72377e-18
4.39475e-18
4.39061e-18
4.39057e-18
4.39057e-18
4.39057e-18
4.39057e-18
4.39057e-18
4.39057e-18
4.39057e-18
4.39057e-18
4.39057e-18
0.00825364
0.00825364
0.00825364
0.00825364
0.00825364
0.00825364
0.00825364
0.00825364
0.00825364
0.00825364
0.00825364
0.00825364
0.00825364
0.00825364
0.00825364
0.00825364
0.00825364
0.00825364
0.00825364
0.00825364
0.00825364
0.00825364
0.00825364
0.0082536
0.00825327
0.00825175
0.00824738
0.00823786
0.00822071
0.00819359
0.00815458
0.00810239
0.00803639
0.00795657
0.00786345
0.00775797
0.00764134
0.00751494
0.00738022
0.00723864
0.00709161
0.00694042
0.00678628
0.00663028
0.00647335
0.00631633
0.00615994
0.00600477
0.00585133
0.00570006
0.00555128
0.00540528
0.00526228
0.00512244
0.00498589
0.0048527
0.00472293
0.0045966
0.00447369
0.00435416
0.00423796
0.00412499
0.00401514
0.00390831
0.00380437
0.00370319
0.00360464
0.00350863
0.00341504
0.00332376
0.0032347
0.00314775
0.00306284
0.00297986
0.00289875
0.00281943
0.00274183
0.00266588
0.00259153
0.0025187
0.00244736
0.00237744
0.00230889
0.00224166
0.00217572
0.00211101
0.0020475
0.00198514
0.00192392
0.00186378
0.0018047
0.00174665
0.0016896
0.00163352
0.00157837
0.00152415
0.0014708
0.00141832
0.00136666
0.00131581
0.00126576
0.00121649
0.00116799
0.00112023
0.00107313
0.0010266
0.000980581
0.000935124
0.000890488
0.000847127
0.000805483
0.000765542
0.000726262
0.000685066
0.000637517
0.00057754
0.000499046
0.000400087
0.000287995
0.000179734
9.35992e-05
3.86977e-05
1.1804e-05
2.3841e-06
2.73908e-07
1.4641e-08
2.87471e-10
1.74227e-12
1.37623e-13
1.35765e-13
1.3572e-13
1.3514e-13
1.32786e-13
1.27665e-13
1.19951e-13
1.10813e-13
1.01582e-13
9.30599e-14
8.54027e-14
7.83889e-14
7.17098e-14
6.51291e-14
5.85262e-14
5.18772e-14
4.52123e-14
3.85765e-14
3.20066e-14
2.55308e-14
1.91901e-14
1.30887e-14
7.50641e-15
3.07136e-15
6.25334e-16
3.76807e-17
4.72378e-18
4.39475e-18
4.39061e-18
4.39057e-18
4.39057e-18
4.39057e-18
4.39057e-18
4.39057e-18
4.39057e-18
4.39057e-18
4.39057e-18
4.39057e-18
0.00825364
0.00825364
0.00825364
0.00825364
0.00825364
0.00825364
0.00825364
0.00825364
0.00825364
0.00825364
0.00825364
0.00825364
0.00825364
0.00825364
0.00825364
0.00825364
0.00825364
0.00825364
0.00825364
0.00825364
0.00825364
0.00825364
0.00825364
0.0082536
0.00825327
0.00825175
0.00824738
0.00823786
0.00822071
0.00819359
0.00815458
0.00810239
0.00803639
0.00795657
0.00786345
0.00775797
0.00764134
0.00751494
0.00738022
0.00723864
0.0070916
0.00694042
0.00678628
0.00663028
0.00647335
0.00631633
0.00615994
0.00600477
0.00585133
0.00570006
0.00555128
0.00540528
0.00526228
0.00512244
0.00498589
0.0048527
0.00472293
0.0045966
0.00447369
0.00435416
0.00423796
0.00412499
0.00401514
0.00390831
0.00380437
0.00370319
0.00360464
0.00350863
0.00341504
0.00332376
0.0032347
0.00314775
0.00306284
0.00297986
0.00289875
0.00281943
0.00274183
0.00266588
0.00259153
0.0025187
0.00244736
0.00237744
0.00230889
0.00224166
0.00217572
0.00211101
0.0020475
0.00198514
0.00192392
0.00186378
0.0018047
0.00174665
0.0016896
0.00163352
0.00157837
0.00152415
0.0014708
0.00141832
0.00136666
0.00131581
0.00126576
0.00121649
0.00116799
0.00112023
0.00107313
0.0010266
0.00098058
0.000935124
0.000890488
0.000847126
0.000805482
0.000765541
0.000726261
0.000685065
0.000637516
0.000577538
0.000499044
0.000400084
0.000287992
0.000179731
9.35977e-05
3.86969e-05
1.18037e-05
2.38403e-06
2.73901e-07
1.46405e-08
2.87462e-10
1.74222e-12
1.37623e-13
1.35766e-13
1.35721e-13
1.3514e-13
1.32786e-13
1.27666e-13
1.19952e-13
1.10814e-13
1.01582e-13
9.30601e-14
8.5403e-14
7.83891e-14
7.171e-14
6.51292e-14
5.85264e-14
5.18773e-14
4.52124e-14
3.85766e-14
3.20067e-14
2.55309e-14
1.91901e-14
1.30887e-14
7.50645e-15
3.07138e-15
6.25343e-16
3.76814e-17
4.72379e-18
4.39475e-18
4.39061e-18
4.39057e-18
4.39057e-18
4.39057e-18
4.39057e-18
4.39057e-18
4.39057e-18
4.39057e-18
4.39057e-18
4.39057e-18
0.00825364
0.00825364
0.00825364
0.00825364
0.00825364
0.00825364
0.00825364
0.00825364
0.00825364
0.00825364
0.00825364
0.00825364
0.00825364
0.00825364
0.00825364
0.00825364
0.00825364
0.00825364
0.00825364
0.00825364
0.00825364
0.00825364
0.00825364
0.0082536
0.00825327
0.00825175
0.00824738
0.00823786
0.00822071
0.00819359
0.00815458
0.00810239
0.00803639
0.00795657
0.00786345
0.00775797
0.00764134
0.00751494
0.00738022
0.00723864
0.0070916
0.00694042
0.00678628
0.00663028
0.00647335
0.00631633
0.00615994
0.00600477
0.00585133
0.00570005
0.00555128
0.00540528
0.00526228
0.00512244
0.00498589
0.0048527
0.00472293
0.0045966
0.00447369
0.00435416
0.00423796
0.00412499
0.00401514
0.00390831
0.00380437
0.00370319
0.00360464
0.00350863
0.00341504
0.00332376
0.0032347
0.00314775
0.00306283
0.00297986
0.00289875
0.00281943
0.00274183
0.00266588
0.00259153
0.0025187
0.00244736
0.00237743
0.00230889
0.00224166
0.00217571
0.00211101
0.0020475
0.00198514
0.00192392
0.00186378
0.0018047
0.00174665
0.0016896
0.00163352
0.00157837
0.00152415
0.0014708
0.00141832
0.00136666
0.00131581
0.00126576
0.00121649
0.00116799
0.00112023
0.00107313
0.0010266
0.00098058
0.000935123
0.000890487
0.000847126
0.000805482
0.000765541
0.000726261
0.000685064
0.000637516
0.000577537
0.000499042
0.000400082
0.00028799
0.00017973
9.35966e-05
3.86964e-05
1.18035e-05
2.38399e-06
2.73895e-07
1.46402e-08
2.87456e-10
1.74219e-12
1.37623e-13
1.35766e-13
1.35721e-13
1.35141e-13
1.32786e-13
1.27666e-13
1.19952e-13
1.10814e-13
1.01583e-13
9.30604e-14
8.54032e-14
7.83894e-14
7.17102e-14
6.51294e-14
5.85265e-14
5.18775e-14
4.52125e-14
3.85767e-14
3.20068e-14
2.55309e-14
1.91902e-14
1.30888e-14
7.50649e-15
3.07141e-15
6.25351e-16
3.76821e-17
4.7238e-18
4.39475e-18
4.39061e-18
4.39057e-18
4.39057e-18
4.39057e-18
4.39057e-18
4.39057e-18
4.39057e-18
4.39057e-18
4.39057e-18
4.39057e-18
0.00825364
0.00825364
0.00825364
0.00825364
0.00825364
0.00825364
0.00825364
0.00825364
0.00825364
0.00825364
0.00825364
0.00825364
0.00825364
0.00825364
0.00825364
0.00825364
0.00825364
0.00825364
0.00825364
0.00825364
0.00825364
0.00825364
0.00825364
0.0082536
0.00825327
0.00825175
0.00824738
0.00823786
0.00822071
0.00819359
0.00815458
0.00810239
0.00803639
0.00795657
0.00786345
0.00775797
0.00764134
0.00751494
0.00738022
0.00723864
0.0070916
0.00694042
0.00678628
0.00663028
0.00647335
0.00631633
0.00615993
0.00600476
0.00585133
0.00570005
0.00555128
0.00540528
0.00526228
0.00512244
0.00498588
0.0048527
0.00472293
0.0045966
0.00447369
0.00435416
0.00423796
0.00412499
0.00401514
0.00390831
0.00380437
0.00370319
0.00360464
0.00350863
0.00341503
0.00332376
0.0032347
0.00314775
0.00306283
0.00297986
0.00289875
0.00281943
0.00274183
0.00266588
0.00259153
0.0025187
0.00244736
0.00237743
0.00230888
0.00224166
0.00217571
0.00211101
0.0020475
0.00198514
0.00192392
0.00186378
0.0018047
0.00174665
0.0016896
0.00163352
0.00157837
0.00152415
0.0014708
0.00141832
0.00136666
0.00131581
0.00126576
0.00121649
0.00116799
0.00112023
0.00107313
0.0010266
0.00098058
0.000935123
0.000890487
0.000847125
0.000805481
0.00076554
0.00072626
0.000685064
0.000637515
0.000577536
0.000499041
0.000400081
0.000287989
0.000179729
9.35959e-05
3.8696e-05
1.18034e-05
2.38396e-06
2.73892e-07
1.464e-08
2.87451e-10
1.74216e-12
1.37624e-13
1.35766e-13
1.35722e-13
1.35141e-13
1.32787e-13
1.27666e-13
1.19953e-13
1.10814e-13
1.01583e-13
9.30607e-14
8.54035e-14
7.83896e-14
7.17104e-14
6.51296e-14
5.85267e-14
5.18776e-14
4.52126e-14
3.85768e-14
3.20068e-14
2.5531e-14
1.91903e-14
1.30888e-14
7.50653e-15
3.07143e-15
6.25358e-16
3.76828e-17
4.72381e-18
4.39475e-18
4.39061e-18
4.39057e-18
4.39057e-18
4.39057e-18
4.39057e-18
4.39057e-18
4.39057e-18
4.39057e-18
4.39057e-18
4.39057e-18
0.00825364
0.00825364
0.00825364
0.00825364
0.00825364
0.00825364
0.00825364
0.00825364
0.00825364
0.00825364
0.00825364
0.00825364
0.00825364
0.00825364
0.00825364
0.00825364
0.00825364
0.00825364
0.00825364
0.00825364
0.00825364
0.00825364
0.00825364
0.0082536
0.00825327
0.00825175
0.00824738
0.00823786
0.00822071
0.00819359
0.00815458
0.00810239
0.00803639
0.00795657
0.00786345
0.00775797
0.00764134
0.00751494
0.00738022
0.00723864
0.0070916
0.00694042
0.00678628
0.00663027
0.00647335
0.00631633
0.00615993
0.00600476
0.00585133
0.00570005
0.00555128
0.00540528
0.00526228
0.00512244
0.00498588
0.0048527
0.00472293
0.0045966
0.00447369
0.00435416
0.00423796
0.00412499
0.00401514
0.00390831
0.00380437
0.00370319
0.00360464
0.00350863
0.00341503
0.00332376
0.0032347
0.00314775
0.00306283
0.00297986
0.00289875
0.00281943
0.00274183
0.00266588
0.00259152
0.0025187
0.00244736
0.00237743
0.00230888
0.00224166
0.00217571
0.00211101
0.00204749
0.00198514
0.00192391
0.00186378
0.0018047
0.00174665
0.0016896
0.00163352
0.00157837
0.00152415
0.0014708
0.00141832
0.00136666
0.00131581
0.00126576
0.00121649
0.00116799
0.00112023
0.00107313
0.0010266
0.000980579
0.000935123
0.000890486
0.000847125
0.000805481
0.00076554
0.00072626
0.000685063
0.000637514
0.000577536
0.00049904
0.00040008
0.000287988
0.000179728
9.35953e-05
3.86957e-05
1.18033e-05
2.38394e-06
2.73889e-07
1.46399e-08
2.87448e-10
1.74214e-12
1.37624e-13
1.35767e-13
1.35722e-13
1.35141e-13
1.32787e-13
1.27667e-13
1.19953e-13
1.10815e-13
1.01583e-13
9.3061e-14
8.54037e-14
7.83898e-14
7.17106e-14
6.51298e-14
5.85269e-14
5.18778e-14
4.52128e-14
3.85769e-14
3.20069e-14
2.55311e-14
1.91903e-14
1.30889e-14
7.50658e-15
3.07146e-15
6.25366e-16
3.76834e-17
4.72382e-18
4.39475e-18
4.39061e-18
4.39057e-18
4.39057e-18
4.39057e-18
4.39057e-18
4.39057e-18
4.39057e-18
4.39057e-18
4.39057e-18
4.39057e-18
0.00825364
0.00825364
0.00825364
0.00825364
0.00825364
0.00825364
0.00825364
0.00825364
0.00825364
0.00825364
0.00825364
0.00825364
0.00825364
0.00825364
0.00825364
0.00825364
0.00825364
0.00825364
0.00825364
0.00825364
0.00825364
0.00825364
0.00825364
0.0082536
0.00825327
0.00825175
0.00824738
0.00823786
0.00822071
0.00819359
0.00815458
0.00810239
0.00803639
0.00795657
0.00786345
0.00775797
0.00764134
0.00751494
0.00738022
0.00723864
0.0070916
0.00694042
0.00678628
0.00663027
0.00647335
0.00631633
0.00615993
0.00600476
0.00585133
0.00570005
0.00555128
0.00540528
0.00526228
0.00512244
0.00498588
0.0048527
0.00472293
0.0045966
0.00447369
0.00435416
0.00423796
0.00412498
0.00401514
0.00390831
0.00380437
0.00370319
0.00360464
0.00350863
0.00341503
0.00332376
0.0032347
0.00314775
0.00306283
0.00297986
0.00289875
0.00281943
0.00274183
0.00266588
0.00259152
0.0025187
0.00244736
0.00237743
0.00230888
0.00224166
0.00217571
0.00211101
0.00204749
0.00198514
0.00192391
0.00186378
0.0018047
0.00174665
0.0016896
0.00163351
0.00157837
0.00152414
0.0014708
0.00141832
0.00136666
0.00131581
0.00126576
0.00121649
0.00116799
0.00112022
0.00107312
0.0010266
0.000980579
0.000935122
0.000890486
0.000847125
0.00080548
0.000765539
0.00072626
0.000685063
0.000637514
0.000577535