/*--------------------------------*- C++ -*----------------------------------*\
  =========                 |
  \\      /  F ield         | OpenFOAM: The Open Source CFD Toolbox
   \\    /   O peration     | Website:  https://openfoam.org
    \\  /    A nd           | Version:  13
     \\/     M anipulation  |
\*---------------------------------------------------------------------------*/
FoamFile
{
    format      ascii;
    class       surfaceScalarField;
    location    "0.0011";
    object      phi;
}
// * * * * * * * * * * * * * * * * * * * * * * * * * * * * * * * * * * * * * //

dimensions      [1 0 -1 0 0 0 0];

internalField   nonuniform List<scalar> 
66301
(
0
0
0
0
2.22045e-16
0
-4.44089e-16
0
-1.11022e-16
-4.44089e-16
-2.22045e-16
-2.22045e-16
0
-2.22045e-16
2.22045e-16
-1.11022e-16
-4.44089e-16
-1.11022e-16
1.11022e-16
-2.22045e-16
0
3.33067e-16
-4.44089e-16
0
-1.11022e-16
0
-3.33067e-16
0
-4.44089e-16
0
-7.77156e-16
-2.22045e-16
-6.66134e-16
3.33067e-16
-5.55112e-16
0
-5.55112e-16
0
2.71672e-13
3.33067e-16
7.60521e-10
1.33227e-15
2.4377e-07
1.42719e-12
1.28848e-05
8.55487e-11
0.000174006
1.30857e-09
0.00094111
7.90817e-09
0.00292624
2.65661e-08
0.00656739
6.27473e-08
0.0120604
1.1905e-07
0.019402
1.95419e-07
0.0284407
2.89918e-07
0.0389332
3.99501e-07
0.0505966
5.20721e-07
0.0631472
6.50274e-07
0.0763256
7.85285e-07
0.0899073
9.23383e-07
0.103707
1.06268e-06
0.117577
1.20171e-06
0.131401
1.33939e-06
0.145092
1.47502e-06
0.158584
1.60839e-06
0.171829
1.73982e-06
0.184795
1.86569e-06
0.197457
1.9911e-06
0.209801
2.11346e-06
0.221817
2.22989e-06
0.233498
2.34188e-06
0.244842
2.45279e-06
0.255845
2.54469e-06
0.266504
2.6494e-06
0.276814
2.76054e-06
0.286766
2.86633e-06
0.296347
2.96867e-06
0.305532
3.0747e-06
0.314289
3.18702e-06
0.322569
3.30702e-06
0.330303
3.43539e-06
0.337406
3.57441e-06
0.34377
3.72835e-06
0.349278
3.90098e-06
0.353821
4.09253e-06
0.357323
4.29839e-06
0.359779
4.50919e-06
0.361277
4.72755e-06
0.362003
5.14421e-06
0.362229
5.50055e-06
0.362215
5.19239e-06
0.361884
4.98794e-06
0.361281
5.04009e-06
0.360636
5.17568e-06
0.360042
5.1378e-06
0.359527
5.14861e-06
0.359076
5.12322e-06
0.358662
5.06681e-06
0.358269
5.02243e-06
0.357891
4.99268e-06
0.357522
4.97196e-06
0.357157
4.9655e-06
0.356791
4.94842e-06
0.356424
4.93945e-06
0.356056
4.91277e-06
0.355689
4.90457e-06
0.355322
4.87557e-06
0.354955
4.85188e-06
0.354587
4.85268e-06
0.354222
4.80148e-06
0.35386
4.84562e-06
0.353502
4.7712e-06
0.353147
4.80657e-06
0.352793
4.74406e-06
0.352441
4.77413e-06
0.352093
4.65263e-06
0.35175
4.74083e-06
0.351407
4.62753e-06
0.35106
4.67159e-06
0.350708
4.69601e-06
0.350357
4.53584e-06
0.350012
4.59028e-06
0.349674
4.64669e-06
0.349339
4.55472e-06
0.349002
4.44121e-06
0.348665
4.28692e-06
0.34833
4.43856e-06
0.347999
4.54372e-06
0.347669
4.72862e-06
0.347339
4.71889e-06
0.347015
4.55162e-06
0.346703
4.26747e-06
0.346397
3.98435e-06
0.346075
4.19917e-06
0.345723
4.48247e-06
0.345358
3.956e-06
0.344999
1.67896e-06
0.344655
-1.69543e-06
0.3446
-2.85539e-06
0.345049
-6.53262e-06
0.346799
-1.14623e-05
0.351295
-1.7867e-05
0.360984
-2.32982e-05
0.379605
-2.5416e-05
0.412188
-2.48512e-05
0.464271
-2.46388e-05
0.538728
-2.56659e-05
0.629224
-2.22385e-05
0.714581
-1.15336e-05
0.771083
2.36691e-06
0.796436
9.21533e-06
0.799502
-1.08148e-07
0.798436
-1.01903e-06
0.796738
-3.16098e-06
0.794694
-5.31835e-06
0.792336
-7.1022e-06
0.790164
-8.00211e-06
0.788367
-8.0323e-06
0.786754
-7.70439e-06
0.785365
-7.30964e-06
0.784134
-7.002e-06
0.782943
-6.79024e-06
0.781705
-6.63659e-06
0.780405
-6.51759e-06
0.779081
-6.4272e-06
0.777783
-6.36033e-06
0.776537
-6.31102e-06
0.775346
-6.27562e-06
0.774186
-6.25078e-06
0.773023
-6.23699e-06
0.771807
-6.2461e-06
0.770409
-6.30684e-06
0.768443
-6.41971e-06
0.764796
-6.51673e-06
0.756233
-6.5407e-06
0.733374
-6.47781e-06
0.67035
-6.25123e-06
0.510361
-5.59444e-06
0.228978
-3.65092e-06
0.0315555
-1.17318e-06
0.000725794
-1.20692e-07
1.84838e-06
-2.56074e-09
3.80127e-10
-5.05784e-12
2.85327e-14
-1.60982e-15
2.77556e-16
5.55112e-16
3.88578e-16
4.996e-16
6.66134e-16
2.77556e-16
3.88578e-16
3.33067e-16
2.77556e-16
5.55112e-17
2.77556e-16
-5.55112e-17
-2.77556e-16
-3.33067e-16
2.22045e-16
-1.11022e-16
1.11022e-16
0
4.44089e-16
-3.33067e-16
-1.11022e-16
-4.44089e-16
-2.22045e-16
0
0
1.11022e-16
1.11022e-16
-2.22045e-16
3.33067e-16
-4.44089e-16
0
5.55112e-16
2.22045e-16
-3.33067e-16
-2.22045e-16
-1.11022e-16
0
-3.33067e-16
-1.11022e-16
-3.33067e-16
3.33067e-16
-6.66134e-16
0
-3.33067e-16
-2.22045e-16
-9.99201e-16
-2.22045e-16
-7.77156e-16
-2.22045e-16
-6.66134e-16
-3.33067e-16
2.71561e-13
-3.33067e-16
7.60558e-10
8.88178e-16
2.4378e-07
7.55174e-13
1.28852e-05
5.06974e-11
0.000174011
8.68817e-10
0.000941133
5.69411e-09
0.0029263
2.03539e-08
0.00656754
5.04245e-08
0.0120607
9.92281e-08
0.0194025
1.67539e-07
0.0284416
2.54144e-07
0.0389345
3.56549e-07
0.0505984
4.71639e-07
0.0631498
5.9623e-07
0.076329
7.27426e-07
0.0899117
8.62773e-07
0.103713
1.00028e-06
0.117584
1.13838e-06
0.131409
1.27588e-06
0.145102
1.41194e-06
0.158595
1.54615e-06
0.171843
1.67914e-06
0.18481
1.80698e-06
0.197474
1.9311e-06
0.20982
2.05347e-06
0.221838
2.17183e-06
0.233522
2.28328e-06
0.244868
2.40567e-06
0.255873
2.51828e-06
0.266535
2.61774e-06
0.276848
2.73024e-06
0.286803
2.84285e-06
0.296387
2.95552e-06
0.305575
3.06346e-06
0.314336
3.17347e-06
0.322618
3.29197e-06
0.330356
3.4215e-06
0.337462
3.56345e-06
0.34383
3.71981e-06
0.349342
3.89269e-06
0.353889
4.08254e-06
0.357395
4.28868e-06
0.359856
4.51385e-06
0.361358
4.75956e-06
0.36209
5.02934e-06
0.362323
5.13183e-06
0.362311
5.88026e-06
0.361985
4.87247e-06
0.361388
4.88576e-06
0.360748
5.17446e-06
0.360159
5.21285e-06
0.359649
5.12595e-06
0.359203
5.12752e-06
0.358794
5.10212e-06
0.358406
5.05646e-06
0.358033
5.0193e-06
0.357669
4.98798e-06
0.357309
4.99154e-06
0.356949
4.94822e-06
0.356586
4.95721e-06
0.356223
4.90058e-06
0.355861
4.90877e-06
0.355499
4.87114e-06
0.355137
4.81329e-06
0.354774
4.88842e-06
0.354413
4.70183e-06
0.354056
4.89973e-06
0.353703
4.65197e-06
0.353353
4.82438e-06
0.353004
4.61373e-06
0.352657
4.81749e-06
0.352314
4.41511e-06
0.351975
4.85177e-06
0.351637
4.44472e-06
0.351295
4.44928e-06
0.350948
4.81836e-06
0.350602
4.26942e-06
0.350261
4.32578e-06
0.349928
4.6604e-06
0.349597
4.34732e-06
0.349266
4.14689e-06
0.348933
3.99713e-06
0.348602
4.43043e-06
0.348276
4.18045e-06
0.347952
4.2086e-06
0.347627
4.13506e-06
0.347308
4.0726e-06
0.347
3.84306e-06
0.346699
3.28256e-06
0.346382
3.28801e-06
0.346037
3.28477e-06
0.345676
2.73101e-06
0.345318
1.5249e-06
0.344973
-1.24754e-06
0.344916
-3.3868e-06
0.345356
-4.56552e-06
0.34709
-8.39548e-06
0.351561
-1.26811e-05
0.361216
-1.59044e-05
0.379797
-1.66216e-05
0.41234
-1.63769e-05
0.464385
-1.83081e-05
0.53881
-2.35788e-05
0.629289
-2.69927e-05
0.71466
-2.81045e-05
0.771201
-2.07171e-05
0.796594
-1.30294e-05
0.799672
-7.43894e-06
0.798614
-6.4711e-06
0.796915
-6.31101e-06
0.794868
-7.13803e-06
0.792502
-7.64395e-06
0.790323
-7.65631e-06
0.788517
-7.60215e-06
0.786896
-7.25616e-06
0.785498
-6.8726e-06
0.78426
-6.59561e-06
0.783062
-6.40756e-06
0.781817
-6.26217e-06
0.78051
-6.1389e-06
0.77918
-6.03494e-06
0.777874
-5.9485e-06
0.776622
-5.87644e-06
0.775424
-5.81738e-06
0.774257
-5.77056e-06
0.773087
-5.74296e-06
0.771864
-5.75124e-06
0.77046
-5.80919e-06
0.768486
-5.89405e-06
0.764831
-5.96181e-06
0.756262
-5.9903e-06
0.733395
-5.94926e-06
0.670364
-5.71311e-06
0.51037
-4.89145e-06
0.228982
-2.75141e-06
0.0315563
-7.94442e-07
0.000725821
-6.89522e-08
1.84846e-06
-1.14973e-09
3.80151e-10
-2.36111e-12
2.85327e-14
-6.66134e-16
1.66533e-16
2.77556e-16
1.11022e-16
1.66533e-16
7.77156e-16
2.22045e-16
1.11022e-16
-1.66533e-16
2.22045e-16
-1.11022e-16
1.11022e-16
-2.22045e-16
-4.44089e-16
-4.44089e-16
1.11022e-16
0
1.11022e-16
-2.22045e-16
-2.22045e-16
-4.44089e-16
-1.11022e-16
-4.44089e-16
0
0
3.33067e-16
0
-3.33067e-16
-3.33067e-16
-5.55112e-16
0
-2.22045e-16
0
-1.11022e-16
-4.44089e-16
0
-3.33067e-16
-2.22045e-16
0
-4.44089e-16
-3.33067e-16
-3.33067e-16
-5.55112e-16
-2.22045e-16
-5.55112e-16
-3.33067e-16
-7.77156e-16
-1.11022e-16
-7.77156e-16
-2.22045e-16
-8.88178e-16
-3.33067e-16
2.72116e-13
-3.33067e-16
7.60603e-10
1.44329e-15
2.43791e-07
5.78759e-13
1.28856e-05
4.04615e-11
0.000174014
7.01541e-10
0.000941144
4.63883e-09
0.00292633
1.68109e-08
0.00656758
4.24011e-08
0.0120608
8.50546e-08
0.0194026
1.46195e-07
0.0284416
2.2524e-07
0.0389346
3.20209e-07
0.0505985
4.28363e-07
0.0631499
5.46734e-07
0.0763291
6.725e-07
0.0899118
8.03194e-07
0.103713
9.36778e-07
0.117584
1.07163e-06
0.131409
1.20652e-06
0.145102
1.34054e-06
0.158595
1.4731e-06
0.171843
1.60392e-06
0.18481
1.73236e-06
0.197475
1.8566e-06
0.209821
1.9791e-06
0.221838
2.10011e-06
0.233522
2.22039e-06
0.244868
2.33317e-06
0.255873
2.45086e-06
0.266535
2.55165e-06
0.276848
2.6557e-06
0.286803
2.76538e-06
0.296387
2.87693e-06
0.305576
2.98713e-06
0.314336
3.09843e-06
0.322618
3.21647e-06
0.330356
3.34535e-06
0.337463
3.48783e-06
0.34383
3.64572e-06
0.349342
3.82042e-06
0.353889
4.01261e-06
0.357395
4.22155e-06
0.359856
4.44923e-06
0.361358
4.69016e-06
0.36209
4.93321e-06
0.362323
5.07655e-06
0.362311
5.45218e-06
0.361985
5.08087e-06
0.361388
4.97434e-06
0.360748
5.02707e-06
0.360159
5.20761e-06
0.359649
5.13813e-06
0.359203
5.11694e-06
0.358794
5.08339e-06
0.358406
5.04546e-06
0.358033
5.01264e-06
0.35767
4.97211e-06
0.357309
4.98051e-06
0.356949
4.91651e-06
0.356587
4.94134e-06
0.356224
4.8624e-06
0.355861
4.88367e-06
0.355499
4.83999e-06
0.355137
4.75755e-06
0.354774
4.88792e-06
0.354413
4.59947e-06
0.354056
4.91526e-06
0.353703
4.5248e-06
0.353353
4.81465e-06
0.353004
4.47478e-06
0.352657
4.8273e-06
0.352314
4.2074e-06
0.351975
4.9147e-06
0.351637
4.24988e-06
0.351295
4.24859e-06
0.350948
4.86924e-06
0.350602
4.0006e-06
0.350261
4.08528e-06
0.349928
4.60888e-06
0.349598
4.11518e-06
0.349266
3.87445e-06
0.348933
3.73507e-06
0.348602
4.35653e-06
0.348276
3.8258e-06
0.347952
3.7187e-06
0.347627
3.52399e-06
0.347308
3.47623e-06
0.347
3.28861e-06
0.346699
2.87168e-06
0.346382
2.60738e-06
0.346037
2.39764e-06
0.345676
1.6052e-06
0.345318
-1.72199e-08
0.344974
-1.37155e-06
0.344916
-3.53011e-06
0.345357
-4.64596e-06
0.34709
-7.16058e-06
0.35156
-1.01594e-05
0.361212
-1.25823e-05
0.379791
-1.38415e-05
0.41233
-1.43743e-05
0.46437
-1.6561e-05
0.538792
-2.23978e-05
0.629277
-2.98708e-05
0.714656
-3.34358e-05
0.771203
-2.69585e-05
0.796595
-2.1262e-05
0.799673
-1.09032e-05
0.798614
-1.00021e-05
0.796915
-9.25975e-06
0.794868
-8.81118e-06
0.792502
-8.24042e-06
0.790323
-7.66319e-06
0.788517
-7.37978e-06
0.786896
-7.0068e-06
0.785498
-6.63941e-06
0.78426
-6.37583e-06
0.783062
-6.19139e-06
0.781817
-6.04273e-06
0.78051
-5.91474e-06
0.779179
-5.80339e-06
0.777874
-5.7068e-06
0.776622
-5.62399e-06
0.775424
-5.55545e-06
0.774257
-5.50398e-06
0.773087
-5.47928e-06
0.771864
-5.4896e-06
0.770459
-5.5321e-06
0.768485
-5.58734e-06
0.764831
-5.63519e-06
0.756261
-5.64662e-06
0.733394
-5.5538e-06
0.670363
-5.19766e-06
0.51037
-4.27402e-06
0.228983
-2.4857e-06
0.0315569
-7.0798e-07
0.000725846
-6.0335e-08
1.84856e-06
-9.59369e-10
3.8018e-10
-1.79862e-12
2.81442e-14
-4.996e-16
5.55112e-17
-2.22045e-16
5.55112e-17
-2.77556e-16
1.11022e-16
-1.66533e-16
1.66533e-16
-5.55112e-17
1.66533e-16
-2.22045e-16
-5.55112e-17
-6.10623e-16
-3.88578e-16
-2.22045e-16
2.22045e-16
2.22045e-16
1.11022e-16
-4.44089e-16
1.11022e-16
-4.44089e-16
0
-1.11022e-16
0
-2.22045e-16
-4.44089e-16
0
-1.11022e-16
-2.22045e-16
-2.22045e-16
-1.11022e-16
1.11022e-16
1.11022e-16
-3.33067e-16
-4.44089e-16
-1.11022e-16
-5.55112e-16
-3.33067e-16
-1.11022e-16
-2.22045e-16
-1.11022e-16
0
-5.55112e-16
-3.33067e-16
-6.66134e-16
-3.33067e-16
-1.22125e-15
-3.33067e-16
-9.99201e-16
-3.33067e-16
-6.66134e-16
-2.22045e-16
2.71339e-13
-4.44089e-16
7.60643e-10
1.22125e-15
2.43799e-07
4.9305e-13
1.28859e-05
3.49735e-11
0.000174017
6.11243e-10
0.000941154
4.05866e-09
0.00292635
1.47614e-08
0.00656762
3.74166e-08
0.0120608
7.55512e-08
0.0194027
1.30842e-07
0.0284417
2.03155e-07
0.0389347
2.90999e-07
0.0505986
3.92067e-07
0.06315
5.03703e-07
0.0763292
6.2326e-07
0.0899119
7.48337e-07
0.103713
8.7689e-07
0.117584
1.00727e-06
0.131409
1.13818e-06
0.145102
1.26868e-06
0.158595
1.39807e-06
0.171843
1.52586e-06
0.18481
1.65173e-06
0.197475
1.77446e-06
0.209821
1.89478e-06
0.221838
2.01355e-06
0.233522
2.13158e-06
0.244868
2.24579e-06
0.255874
2.3605e-06
0.266535
2.46832e-06
0.276848
2.57137e-06
0.286804
2.6793e-06
0.296387
2.78889e-06
0.305576
2.89856e-06
0.314336
3.00986e-06
0.322618
3.12602e-06
0.330356
3.25176e-06
0.337463
3.39119e-06
0.34383
3.54687e-06
0.349342
3.72024e-06
0.353889
3.91165e-06
0.357395
4.11958e-06
0.359856
4.34284e-06
0.361358
4.56533e-06
0.36209
4.79391e-06
0.362323
4.96678e-06
0.362311
5.1343e-06
0.361985
5.13979e-06
0.361388
4.97261e-06
0.360748
4.92672e-06
0.360159
5.04533e-06
0.359649
5.0883e-06
0.359203
5.06261e-06
0.358794
5.01886e-06
0.358406
4.98207e-06
0.358033
4.95779e-06
0.357669
4.91153e-06
0.357309
4.92047e-06
0.356949
4.84424e-06
0.356586
4.8792e-06
0.356223
4.78892e-06
0.355861
4.81571e-06
0.355499
4.77172e-06
0.355137
4.67352e-06
0.354774
4.83126e-06
0.354413
4.48848e-06
0.354056
4.86346e-06
0.353703
4.39078e-06
0.353353
4.76075e-06
0.353004
4.32199e-06
0.352657
4.77592e-06
0.352314
4.0095e-06
0.351975
4.87259e-06
0.351637
4.06474e-06
0.351295
4.06874e-06
0.350948
4.80234e-06
0.350602
3.76047e-06
0.350261
3.88712e-06
0.349928
4.47517e-06
0.349598
3.86845e-06
0.349266
3.62267e-06
0.348933
3.48639e-06
0.348602
4.17398e-06
0.348276
3.47089e-06
0.347952
3.28213e-06
0.347627
3.0287e-06
0.347307
2.93463e-06
0.347
2.67077e-06
0.346699
2.22589e-06
0.346382
2.12246e-06
0.346036
1.70625e-06
0.345676
7.5315e-07
0.345317
-9.15511e-07
0.344974
-2.11794e-06
0.344916
-3.76772e-06
0.345356
-4.67523e-06
0.347089
-6.43341e-06
0.351558
-8.70853e-06
0.361209
-1.07422e-05
0.379784
-1.24672e-05
0.412317
-1.39369e-05
0.46435
-1.68494e-05
0.538768
-2.24571e-05
0.629254
-2.87358e-05
0.714643
-3.0279e-05
0.771202
-2.63262e-05
0.796599
-2.08615e-05
0.799678
-1.22623e-05
0.798616
-1.16748e-05
0.796916
-1.06615e-05
0.794868
-9.71634e-06
0.792502
-8.67505e-06
0.790322
-7.83976e-06
0.788517
-7.35031e-06
0.786895
-6.93696e-06
0.785498
-6.57658e-06
0.78426
-6.32156e-06
0.783062
-6.13147e-06
0.781817
-5.97089e-06
0.78051
-5.83294e-06
0.779179
-5.71224e-06
0.777874
-5.60546e-06
0.776621
-5.51442e-06
0.775423
-5.43915e-06
0.774256
-5.38397e-06
0.773087
-5.35433e-06
0.771863
-5.35059e-06
0.770458
-5.36957e-06
0.768485
-5.3973e-06
0.76483
-5.40941e-06
0.75626
-5.38248e-06
0.733394
-5.27846e-06
0.670363
-5.03492e-06
0.510372
-4.1498e-06
0.228985
-2.46906e-06
0.0315576
-7.04843e-07
0.000725871
-6.0124e-08
1.84866e-06
-9.55896e-10
3.80207e-10
-1.77297e-12
2.85882e-14
-3.88578e-16
0
-3.33067e-16
1.11022e-16
-2.77556e-16
3.33067e-16
-2.22045e-16
-1.66533e-16
-1.66533e-16
-5.55112e-17
1.66533e-16
1.11022e-16
1.11022e-16
5.55112e-17
-5.55112e-16
1.11022e-16
0
2.22045e-16
-7.77156e-16
-2.22045e-16
-4.44089e-16
-1.11022e-16
-3.33067e-16
3.33067e-16
-4.44089e-16
1.11022e-16
-1.11022e-16
2.22045e-16
0
0
-3.33067e-16
-1.11022e-16
0
-1.11022e-16
-4.44089e-16
-2.22045e-16
-3.33067e-16
-1.11022e-16
2.22045e-16
1.11022e-16
-4.44089e-16
-4.44089e-16
-6.66134e-16
-6.66134e-16
-5.55112e-16
-5.55112e-16
-9.99201e-16
-3.33067e-16
-9.99201e-16
0
-7.77156e-16
-3.33067e-16
2.71339e-13
-3.33067e-16
7.60678e-10
7.77156e-16
2.43807e-07
4.18554e-13
1.28862e-05
2.98804e-11
0.00017402
5.26238e-10
0.000941164
3.52322e-09
0.00292637
1.29209e-08
0.00656766
3.3024e-08
0.0120609
6.7242e-08
0.0194027
1.17424e-07
0.0284418
1.83767e-07
0.0389348
2.65135e-07
0.0505987
3.59536e-07
0.0631501
4.64573e-07
0.0763293
5.77792e-07
0.089912
6.96914e-07
0.103713
8.19961e-07
0.117584
9.45301e-07
0.131409
1.07164e-06
0.145102
1.19798e-06
0.158595
1.32358e-06
0.171843
1.44787e-06
0.18481
1.57038e-06
0.197475
1.69064e-06
0.209821
1.80851e-06
0.221838
1.92478e-06
0.233522
2.03988e-06
0.244868
2.15345e-06
0.255874
2.26448e-06
0.266535
2.37342e-06
0.276848
2.47684e-06
0.286804
2.58094e-06
0.296387
2.68914e-06
0.305576
2.79861e-06
0.314336
2.91056e-06
0.322618
3.02702e-06
0.330357
3.15198e-06
0.337463
3.28983e-06
0.34383
3.44384e-06
0.349342
3.61592e-06
0.353889
3.80633e-06
0.357395
4.01274e-06
0.359856
4.23117e-06
0.361358
4.44435e-06
0.36209
4.65701e-06
0.362323
4.80961e-06
0.362311
4.95642e-06
0.361985
5.04645e-06
0.361388
4.94279e-06
0.360748
4.86422e-06
0.360159
4.90143e-06
0.359649
4.9685e-06
0.359203
4.97103e-06
0.358794
4.93106e-06
0.358406
4.89183e-06
0.358033
4.87158e-06
0.357669
4.82017e-06
0.357309
4.8294e-06
0.356949
4.74402e-06
0.356586
4.78569e-06
0.356223
4.688e-06
0.355861
4.71539e-06
0.355499
4.67415e-06
0.355137
4.5636e-06
0.354774
4.73659e-06
0.354413
4.36251e-06
0.354056
4.77004e-06
0.353703
4.23895e-06
0.353353
4.67703e-06
0.353004
4.14405e-06
0.352657
4.69063e-06
0.352314
3.80539e-06
0.351975
4.7794e-06
0.351637
3.86518e-06
0.351295
3.88305e-06
0.350948
4.6734e-06
0.350601
3.51294e-06
0.350261
3.68773e-06
0.349928
4.28967e-06
0.349597
3.59751e-06
0.349266
3.361e-06
0.348933
3.22824e-06
0.348602
3.93087e-06
0.348276
3.09267e-06
0.347951
2.84984e-06
0.347627
2.58093e-06
0.347307
2.47972e-06
0.347
2.14899e-06
0.346698
1.60686e-06
0.346381
1.45458e-06
0.346036
1.03161e-06
0.345675
8.27033e-08
0.345317
-1.51605e-06
0.344973
-2.74711e-06
0.344915
-3.98813e-06
0.345354
-4.6831e-06
0.347087
-6.03858e-06
0.351556
-7.67127e-06
0.361206
-9.58633e-06
0.379779
-1.16829e-05
0.412308
-1.34979e-05
0.464337
-1.6383e-05
0.53875
-2.08135e-05
0.629235
-2.49871e-05
0.714632
-2.56362e-05
0.771198
-2.32333e-05
0.796602
-1.80174e-05
0.79968
-1.26676e-05
0.798618
-1.22096e-05
0.796917
-1.11462e-05
0.794868
-1.01179e-05
0.792502
-9.02299e-06
0.790322
-8.08376e-06
0.788517
-7.46267e-06
0.786895
-6.99946e-06
0.785498
-6.63137e-06
0.78426
-6.35878e-06
0.783062
-6.15814e-06
0.781817
-5.98753e-06
0.78051
-5.82932e-06
0.779179
-5.68684e-06
0.777873
-5.56553e-06
0.776621
-5.46383e-06
0.775423
-5.37716e-06
0.774256
-5.31068e-06
0.773086
-5.26739e-06
0.771863
-5.24855e-06
0.770458
-5.24307e-06
0.768484
-5.24511e-06
0.76483
-5.24616e-06
0.75626
-5.24069e-06
0.733394
-5.17563e-06
0.670364
-4.88599e-06
0.510373
-4.07838e-06
0.228987
-2.43164e-06
0.0315582
-6.93157e-07
0.000725895
-5.90291e-08
1.84875e-06
-9.39301e-10
3.80233e-10
-1.74755e-12
2.86993e-14
-7.77156e-16
1.66533e-16
0
1.11022e-16
-3.33067e-16
3.33067e-16
-5.55112e-17
2.77556e-16
-2.77556e-16
0
-5.55112e-16
0
-5.55112e-16
-4.996e-16
-1.11022e-16
-1.11022e-16
-4.44089e-16
-1.11022e-16
-2.22045e-16
1.11022e-16
-3.33067e-16
2.22045e-16
-7.77156e-16
0
0
3.33067e-16
0
0
-2.22045e-16
-5.55112e-16
0
-2.22045e-16
-3.33067e-16
-5.55112e-16
-2.22045e-16
-2.22045e-16
-2.22045e-16
-1.11022e-16
-2.22045e-16
0
-3.33067e-16
-2.22045e-16
-7.77156e-16
-2.22045e-16
-7.77156e-16
-2.22045e-16
-7.77156e-16
-2.22045e-16
-7.77156e-16
-3.33067e-16
-7.77156e-16
-3.33067e-16
2.71783e-13
3.33067e-16
7.60707e-10
7.77156e-16
2.43814e-07
3.47278e-13
1.28864e-05
2.49698e-11
0.000174022
4.43542e-10
0.000941172
3.00175e-09
0.00292639
1.11381e-08
0.00656769
2.87968e-08
0.012061
5.92711e-08
0.0194028
1.04539e-07
0.0284419
1.65087e-07
0.0389349
2.40115e-07
0.0505988
3.27946e-07
0.0631502
4.26441e-07
0.0763294
5.33343e-07
0.0899121
6.46502e-07
0.103713
7.6401e-07
0.117584
8.84258e-07
0.13141
1.00594e-06
0.145102
1.12804e-06
0.158595
1.24975e-06
0.171843
1.37047e-06
0.18481
1.48969e-06
0.197475
1.6071e-06
0.209821
1.72244e-06
0.221838
1.8361e-06
0.233522
1.94854e-06
0.244868
2.05987e-06
0.255874
2.16901e-06
0.266535
2.27631e-06
0.276848
2.38021e-06
0.286804
2.4826e-06
0.296387
2.58772e-06
0.305576
2.69612e-06
0.314336
2.8079e-06
0.322619
2.92442e-06
0.330357
3.04861e-06
0.337463
3.18464e-06
0.343831
3.33624e-06
0.349343
3.50588e-06
0.353889
3.69384e-06
0.357396
3.89725e-06
0.359856
4.10971e-06
0.361359
4.3169e-06
0.36209
4.51236e-06
0.362323
4.66569e-06
0.362311
4.80983e-06
0.361985
4.9092e-06
0.361388
4.86774e-06
0.360748
4.80527e-06
0.360159
4.79863e-06
0.359649
4.83395e-06
0.359203
4.85372e-06
0.358794
4.83112e-06
0.358406
4.79619e-06
0.358033
4.77544e-06
0.357669
4.71745e-06
0.357309
4.72787e-06
0.356949
4.63573e-06
0.356586
4.68022e-06
0.356223
4.57757e-06
0.355861
4.60068e-06
0.355499
4.56414e-06
0.355137
4.44246e-06
0.354774
4.62083e-06
0.354413
4.23412e-06
0.354056
4.65189e-06
0.353703
4.08373e-06
0.353353
4.5761e-06
0.353004
3.9552e-06
0.352657
4.58593e-06
0.352314
3.60493e-06
0.351975
4.65735e-06
0.351637
3.66511e-06
0.351294
3.69574e-06
0.350948
4.51309e-06
0.350601
3.27289e-06
0.350261
3.48761e-06
0.349928
4.07867e-06
0.349597
3.32552e-06
0.349265
3.09438e-06
0.348932
2.96627e-06
0.348602
3.66984e-06
0.348276
2.73836e-06
0.347951
2.4456e-06
0.347627
2.16082e-06
0.347307
2.0722e-06
0.346999
1.72584e-06
0.346698
1.12197e-06
0.346381
8.77485e-07
0.346035
3.92971e-07
0.345674
-5.19659e-07
0.345315
-2.00223e-06
0.344971
-3.17355e-06
0.344913
-4.20182e-06
0.345353
-4.77577e-06
0.347086
-5.84502e-06
0.351555
-7.31437e-06
0.361205
-9.08804e-06
0.379776
-1.07669e-05
0.412304
-1.23524e-05
0.46433
-1.47679e-05
0.538742
-1.79163e-05
0.629227
-2.05938e-05
0.714627
-2.14976e-05
0.771197
-2.00357e-05
0.796604
-1.60967e-05
0.799682
-1.25179e-05
0.798619
-1.2154e-05
0.796918
-1.11246e-05
0.794869
-1.01651e-05
0.792503
-9.15642e-06
0.790323
-8.22451e-06
0.788517
-7.57236e-06
0.786896
-7.09299e-06
0.785498
-6.7091e-06
0.78426
-6.41883e-06
0.783062
-6.1932e-06
0.781817
-6.00511e-06
0.78051
-5.83459e-06
0.779179
-5.68217e-06
0.777873
-5.54845e-06
0.776621
-5.43027e-06
0.775423
-5.33136e-06
0.774256
-5.25268e-06
0.773086
-5.19647e-06
0.771863
-5.16588e-06
0.770458
-5.1474e-06
0.768484
-5.14226e-06
0.76483
-5.14387e-06
0.75626
-5.13708e-06
0.733394
-5.06071e-06
0.670365
-4.76558e-06
0.510375
-3.96792e-06
0.22899
-2.358e-06
0.0315588
-6.70837e-07
0.00072592
-5.70874e-08
1.84885e-06
-9.08335e-10
3.80259e-10
-1.6917e-12
2.85327e-14
-5.55112e-16
-1.11022e-16
-2.22045e-16
2.22045e-16
-5.55112e-17
2.77556e-16
-4.996e-16
0
-2.22045e-16
-5.55112e-17
-4.996e-16
1.11022e-16
-4.44089e-16
-4.996e-16
1.11022e-16
4.44089e-16
1.11022e-16
5.55112e-16
-4.44089e-16
1.11022e-16
-3.33067e-16
1.11022e-16
-2.22045e-16
0
-2.22045e-16
-1.11022e-16
-6.66134e-16
-3.33067e-16
0
-1.11022e-16
0
-1.11022e-16
0
-6.66134e-16
-1.11022e-16
-1.11022e-16
-1.11022e-16
-1.11022e-16
-4.44089e-16
-8.88178e-16
-5.55112e-16
-4.44089e-16
-5.55112e-16
-1.11022e-16
-7.77156e-16
-3.33067e-16
-7.77156e-16
-5.55112e-16
-8.88178e-16
-3.33067e-16
-9.99201e-16
0
2.72005e-13
-3.33067e-16
7.6073e-10
7.77156e-16
2.4382e-07
2.81442e-13
1.28866e-05
2.04168e-11
0.000174024
3.66551e-10
0.00094118
2.51324e-09
0.00292641
9.4575e-09
0.00656772
2.47868e-08
0.012061
5.16554e-08
0.0194029
9.21304e-08
0.028442
1.46959e-07
0.038935
2.1568e-07
0.0505989
2.9694e-07
0.0631503
3.88871e-07
0.0763295
4.89413e-07
0.0899122
5.96549e-07
0.103713
7.08446e-07
0.117584
8.23527e-07
0.13141
9.40489e-07
0.145102
1.05828e-06
0.158596
1.17608e-06
0.171843
1.29324e-06
0.18481
1.40925e-06
0.197475
1.52375e-06
0.209821
1.63655e-06
0.221839
1.74775e-06
0.233522
1.8577e-06
0.244868
1.96659e-06
0.255874
2.07404e-06
0.266536
2.17959e-06
0.276848
2.28302e-06
0.286804
2.38457e-06
0.296387
2.48718e-06
0.305576
2.59339e-06
0.314336
2.70392e-06
0.322619
2.81982e-06
0.330357
2.94326e-06
0.337463
3.07776e-06
0.343831
3.22696e-06
0.349343
3.39355e-06
0.353889
3.578e-06
0.357396
3.77731e-06
0.359856
3.98422e-06
0.361359
4.18661e-06
0.36209
4.37113e-06
0.362323
4.5273e-06
0.362311
4.66955e-06
0.361985
4.77757e-06
0.361388
4.76965e-06
0.360748
4.73123e-06
0.360159
4.71123e-06
0.359649
4.71749e-06
0.359203
4.73629e-06
0.358794
4.72412e-06
0.358406
4.69625e-06
0.358033
4.67805e-06
0.357669
4.61389e-06
0.357309
4.62603e-06
0.356949
4.52927e-06
0.356586
4.57394e-06
0.356223
4.46918e-06
0.355861
4.48467e-06
0.355499
4.45433e-06
0.355137
4.32158e-06
0.354774
4.49765e-06
0.354413
4.11141e-06
0.354056
4.52229e-06
0.353703
3.93486e-06
0.353353
4.46819e-06
0.353004
3.76864e-06
0.352657
4.4748e-06
0.352314
3.41458e-06
0.351975
4.5222e-06
0.351637
3.47673e-06
0.351294
3.51484e-06
0.350948
4.33976e-06
0.350601
3.04955e-06
0.350261
3.29154e-06
0.349928
3.8626e-06
0.349597
3.07196e-06
0.349265
2.83361e-06
0.348932
2.70385e-06
0.348602
3.39535e-06
0.348276
2.4184e-06
0.347951
2.0918e-06
0.347626
1.78634e-06
0.347306
1.69744e-06
0.346999
1.34728e-06
0.346698
7.427e-07
0.34638
4.40582e-07
0.346034
-9.0369e-08
0.345673
-9.75638e-07
0.345314
-2.36245e-06
0.34497
-3.44264e-06
0.344912
-4.36183e-06
0.345352
-4.87295e-06
0.347085
-5.74896e-06
0.351553
-7.00934e-06
0.361203
-8.59127e-06
0.379775
-1.00779e-05
0.412303
-1.13882e-05
0.464329
-1.30206e-05
0.538741
-1.49539e-05
0.629227
-1.68089e-05
0.714626
-1.77086e-05
0.771198
-1.6986e-05
0.796606
-1.45227e-05
0.799684
-1.20443e-05
0.798621
-1.17278e-05
0.796919
-1.07877e-05
0.79487
-9.95558e-06
0.792503
-9.07365e-06
0.790323
-8.21905e-06
0.788517
-7.59828e-06
0.786896
-7.12915e-06
0.785498
-6.74255e-06
0.78426
-6.4476e-06
0.783062
-6.21624e-06
0.781817
-6.0175e-06
0.78051
-5.83833e-06
0.779179
-5.67618e-06
0.777873
-5.53127e-06
0.776621
-5.40354e-06
0.775423
-5.29435e-06
0.774256
-5.20528e-06
0.773086
-5.13859e-06
0.771863
-5.09493e-06
0.770458
-5.06661e-06
0.768484
-5.05403e-06
0.76483
-5.04717e-06
0.75626
-5.02506e-06
0.733394
-4.92578e-06
0.670365
-4.6244e-06
0.510377
-3.83523e-06
0.228992
-2.2725e-06
0.0315594
-6.44892e-07
0.000725943
-5.47546e-08
1.84894e-06
-8.69605e-10
3.80284e-10
-1.61793e-12
2.84217e-14
-4.44089e-16
0
-3.33067e-16
0
-5.55112e-16
5.55112e-16
-1.66533e-16
-1.66533e-16
-2.77556e-16
-1.11022e-16
-1.11022e-16
2.22045e-16
-2.22045e-16
-3.88578e-16
-2.22045e-16
2.22045e-16
-4.44089e-16
1.11022e-16
-2.22045e-16
1.11022e-16
-9.99201e-16
-3.33067e-16
-2.22045e-16
-2.22045e-16
-3.33067e-16
-2.22045e-16
-5.55112e-16
-5.55112e-16
-2.22045e-16
-1.11022e-16
-4.44089e-16
-2.22045e-16
4.44089e-16
-4.44089e-16
-2.22045e-16
-8.88178e-16
-7.77156e-16
-3.33067e-16
0
0
-5.55112e-16
-2.22045e-16
-6.66134e-16
-2.22045e-16
-1.11022e-15
-3.33067e-16
-7.77156e-16
-2.22045e-16
-8.88178e-16
-1.11022e-16
-8.88178e-16
-2.22045e-16
2.71227e-13
-8.88178e-16
7.60751e-10
6.66134e-16
2.43824e-07
2.23266e-13
1.28868e-05
1.63043e-11
0.000174025
2.96722e-10
0.000941186
2.06744e-09
0.00292642
7.91243e-09
0.00656775
2.10701e-08
0.012061
4.45354e-08
0.0194029
8.04208e-08
0.028442
1.29686e-07
0.0389351
1.92175e-07
0.050599
2.66858e-07
0.0631504
3.52149e-07
0.0763296
4.46209e-07
0.0899123
5.47175e-07
0.103713
6.53308e-07
0.117584
7.63077e-07
0.13141
8.75183e-07
0.145102
9.88565e-07
0.158596
1.10237e-06
0.171843
1.21591e-06
0.184811
1.32865e-06
0.197475
1.44022e-06
0.209821
1.5504e-06
0.221839
1.65915e-06
0.233522
1.76669e-06
0.244868
1.87323e-06
0.255874
1.97872e-06
0.266536
2.08275e-06
0.276849
2.18517e-06
0.286804
2.28609e-06
0.296387
2.38714e-06
0.305576
2.49106e-06
0.314336
2.59975e-06
0.322619
2.71454e-06
0.330357
2.83716e-06
0.337463
2.97043e-06
0.343831
3.11754e-06
0.349343
3.2811e-06
0.353889
3.46159e-06
0.357396
3.65616e-06
0.359856
3.85749e-06
0.361359
4.05487e-06
0.36209
4.23341e-06
0.362323
4.39172e-06
0.362311
4.53201e-06
0.361985
4.64923e-06
0.361388
4.66663e-06
0.360748
4.64447e-06
0.360159
4.6232e-06
0.359649
4.61303e-06
0.359203
4.62125e-06
0.358794
4.61644e-06
0.358406
4.59086e-06
0.358033
4.57823e-06
0.357669
4.50977e-06
0.357309
4.52363e-06
0.356949
4.42369e-06
0.356586
4.46693e-06
0.356223
4.36264e-06
0.355861
4.36826e-06
0.355499
4.34573e-06
0.355137
4.20325e-06
0.354774
4.37174e-06
0.354413
3.9964e-06
0.354056
4.38643e-06
0.353703
3.79675e-06
0.353353
4.35486e-06
0.353004
3.59344e-06
0.352657
4.3605e-06
0.352314
3.23821e-06
0.351975
4.37951e-06
0.351636
3.30281e-06
0.351294
3.34358e-06
0.350948
4.1603e-06
0.350601
2.84679e-06
0.350261
3.10132e-06
0.349927
3.6499e-06
0.349597
2.84689e-06
0.349265
2.59448e-06
0.348932
2.4601e-06
0.348602
3.11577e-06
0.348275
2.12387e-06
0.347951
1.7812e-06
0.347626
1.47097e-06
0.347306
1.37499e-06
0.346999
1.01748e-06
0.346697
4.26153e-07
0.346379
1.09175e-07
0.346033
-4.2406e-07
0.345673
-1.27457e-06
0.345313
-2.57529e-06
0.344969
-3.5719e-06
0.344911
-4.41333e-06
0.345351
-4.88266e-06
0.347083
-5.68577e-06
0.351552
-6.78842e-06
0.361202
-8.08101e-06
0.379774
-9.2921e-06
0.412302
-1.04218e-05
0.464329
-1.15549e-05
0.538741
-1.26834e-05
0.629228
-1.38744e-05
0.714628
-1.45696e-05
0.7712
-1.42987e-05
0.796608
-1.28363e-05
0.799686
-1.12987e-05
0.798622
-1.10805e-05
0.79692
-1.02856e-05
0.794871
-9.57418e-06
0.792504
-8.81415e-06
0.790324
-8.06542e-06
0.788518
-7.50901e-06
0.786896
-7.07467e-06
0.785499
-6.70651e-06
0.78426
-6.41832e-06
0.783062
-6.19028e-06
0.781817
-5.99398e-06
0.78051
-5.81543e-06
0.779179
-5.65127e-06
0.777874
-5.50157e-06
0.776621
-5.36733e-06
0.775423
-5.2502e-06
0.774256
-5.15247e-06
0.773086
-5.07589e-06
0.771863
-5.01966e-06
0.770458
-4.98207e-06
0.768484
-4.95893e-06
0.76483
-4.93872e-06
0.75626
-4.89408e-06
0.733395
-4.7776e-06
0.670366
-4.46838e-06
0.510378
-3.69428e-06
0.228993
-2.18319e-06
0.03156
-6.18011e-07
0.000725966
-5.23489e-08
1.84902e-06
-8.29636e-10
3.80308e-10
-1.54099e-12
2.84217e-14
-4.996e-16
1.11022e-16
-3.33067e-16
2.77556e-16
5.55112e-17
6.10623e-16
1.66533e-16
-1.11022e-16
-2.22045e-16
-1.66533e-16
-3.88578e-16
0
-1.11022e-16
-4.44089e-16
-2.22045e-16
0
-4.44089e-16
0
-5.55112e-16
-1.11022e-16
-7.77156e-16
-3.33067e-16
-3.33067e-16
-1.11022e-16
-5.55112e-16
-2.22045e-16
0
-4.44089e-16
-4.44089e-16
-5.55112e-16
-3.33067e-16
-1.11022e-16
-2.22045e-16
-4.44089e-16
-2.22045e-16
-4.44089e-16
-3.33067e-16
-3.33067e-16
-2.22045e-16
-4.44089e-16
-4.44089e-16
-4.44089e-16
-7.77156e-16
-3.33067e-16
-9.99201e-16
-3.33067e-16
-9.99201e-16
0
-7.77156e-16
-1.11022e-16
-7.77156e-16
-2.22045e-16
2.71339e-13
1.11022e-16
7.60766e-10
-1.11022e-16
2.43828e-07
1.70974e-13
1.28869e-05
1.26725e-11
0.000174027
2.34665e-10
0.000941191
1.66805e-09
0.00292644
6.51512e-09
0.00656777
1.76754e-08
0.0120611
3.79675e-08
0.019403
6.95132e-08
0.0284421
1.1344e-07
0.0389351
1.69866e-07
0.0505991
2.38066e-07