/*--------------------------------*- C++ -*----------------------------------*\
  =========                 |
  \\      /  F ield         | OpenFOAM: The Open Source CFD Toolbox
   \\    /   O peration     | Website:  https://openfoam.org
    \\  /    A nd           | Version:  13
     \\/     M anipulation  |
\*---------------------------------------------------------------------------*/
FoamFile
{
    format      ascii;
    class       volScalarField;
    location    "0.0011";
    object      Qdot;
}
// * * * * * * * * * * * * * * * * * * * * * * * * * * * * * * * * * * * * * //

dimensions      [1 -1 -3 0 0 0 0];

internalField   nonuniform List<scalar> 
33334
(
6.85705e+08
6.85705e+08
6.85705e+08
6.85705e+08
6.85705e+08
6.85705e+08
6.85705e+08
6.85705e+08
6.85705e+08
6.85705e+08
6.85705e+08
6.85705e+08
6.85705e+08
6.85705e+08
6.85705e+08
6.85705e+08
6.85705e+08
6.85705e+08
6.85705e+08
6.85705e+08
6.85705e+08
6.85705e+08
6.85697e+08
6.85546e+08
6.84466e+08
6.80751e+08
6.72584e+08
6.58784e+08
6.38938e+08
6.13325e+08
5.82762e+08
5.48394e+08
5.11488e+08
4.7327e+08
4.34823e+08
3.97037e+08
3.60596e+08
3.2599e+08
2.9354e+08
2.63427e+08
2.35724e+08
2.10419e+08
1.87443e+08
1.66685e+08
1.4801e+08
1.31268e+08
1.16304e+08
1.02963e+08
9.10983e+07
8.0568e+07
7.12418e+07
6.30004e+07
5.57362e+07
4.9352e+07
4.37661e+07
3.89046e+07
3.47056e+07
3.11161e+07
2.80896e+07
2.55827e+07
2.35503e+07
2.19412e+07
2.06938e+07
1.97347e+07
1.89816e+07
1.83487e+07
1.77979e+07
1.73674e+07
1.69926e+07
1.66285e+07
1.62652e+07
1.5904e+07
1.55481e+07
1.52007e+07
1.48639e+07
1.45386e+07
1.42251e+07
1.39235e+07
1.36338e+07
1.33555e+07
1.30877e+07
1.28299e+07
1.25814e+07
1.2342e+07
1.21112e+07
1.18881e+07
1.16723e+07
1.14634e+07
1.12612e+07
1.10658e+07
1.08765e+07
1.0693e+07
1.05151e+07
1.0343e+07
1.01771e+07
1.00168e+07
9.86133e+06
9.70985e+06
9.56224e+06
9.41891e+06
9.28016e+06
9.14575e+06
9.01511e+06
8.88772e+06
8.76306e+06
8.64032e+06
8.51867e+06
8.39897e+06
8.28533e+06
8.18324e+06
8.09359e+06
8.00925e+06
7.91565e+06
7.78432e+06
7.52998e+06
7.00315e+06
5.97481e+06
4.31051e+06
2.30988e+06
763252
122775
7705.79
190.396
3.29333
0.117575
0.0192128
0.0102734
0.00910647
0.00893845
0.00904553
0.0092219
0.00947052
0.00957756
0.00954335
0.00944321
0.00926821
0.00910906
0.00889106
0.00878674
0.00869786
0.00861035
0.00853357
0.00845649
0.00837277
0.00830474
0.00820377
0.00809133
0.00797475
0.00775049
0.00731105
0.00631308
0.00416743
0.0012358
6.97646e-05
9.07396e-07
1.30723e-07
1.11447e-07
1.11225e-07
1.11225e-07
1.11225e-07
1.11225e-07
1.11225e-07
1.11225e-07
1.11225e-07
1.11225e-07
1.11225e-07
6.85705e+08
6.85705e+08
6.85705e+08
6.85705e+08
6.85705e+08
6.85705e+08
6.85705e+08
6.85705e+08
6.85705e+08
6.85705e+08
6.85705e+08
6.85705e+08
6.85705e+08
6.85705e+08
6.85705e+08
6.85705e+08
6.85705e+08
6.85705e+08
6.85705e+08
6.85705e+08
6.85705e+08
6.85705e+08
6.85697e+08
6.85546e+08
6.84466e+08
6.80751e+08
6.72584e+08
6.58784e+08
6.38938e+08
6.13325e+08
5.82762e+08
5.48394e+08
5.11488e+08
4.7327e+08
4.34823e+08
3.97036e+08
3.60595e+08
3.25989e+08
2.93539e+08
2.63427e+08
2.35723e+08
2.10419e+08
1.87443e+08
1.66685e+08
1.4801e+08
1.31268e+08
1.16303e+08
1.02963e+08
9.1098e+07
8.05677e+07
7.12415e+07
6.30001e+07
5.57358e+07
4.93517e+07
4.37658e+07
3.89042e+07
3.47053e+07
3.11157e+07
2.80892e+07
2.55823e+07
2.355e+07
2.19409e+07
2.06935e+07
1.97343e+07
1.89812e+07
1.83485e+07
1.77976e+07
1.7367e+07
1.69923e+07
1.66282e+07
1.62649e+07
1.59037e+07
1.55478e+07
1.52004e+07
1.48636e+07
1.45383e+07
1.42248e+07
1.39232e+07
1.36335e+07
1.33552e+07
1.30875e+07
1.28296e+07
1.25811e+07
1.23417e+07
1.21109e+07
1.18879e+07
1.16721e+07
1.14631e+07
1.1261e+07
1.10655e+07
1.08763e+07
1.06928e+07
1.05149e+07
1.03428e+07
1.01768e+07
1.00166e+07
9.86111e+06
9.70963e+06
9.56203e+06
9.41871e+06
9.27996e+06
9.14554e+06
9.01492e+06
8.88753e+06
8.76288e+06
8.64015e+06
8.51849e+06
8.39878e+06
8.28515e+06
8.18305e+06
8.0934e+06
8.00908e+06
7.91554e+06
7.78415e+06
7.53011e+06
7.00368e+06
5.97592e+06
4.31206e+06
2.31126e+06
763933
122922
7716.73
190.666
3.29702
0.117636
0.0192156
0.0102733
0.00910578
0.00893766
0.00904473
0.00922106
0.00946972
0.00957681
0.00954264
0.00944253
0.00926757
0.00910844
0.00889047
0.00878616
0.0086973
0.00860981
0.00853304
0.00845599
0.0083723
0.00830429
0.00820335
0.00809094
0.0079744
0.00775018
0.0073108
0.0063129
0.00416736
0.0012358
6.97666e-05
9.07421e-07
1.30724e-07
1.11447e-07
1.11225e-07
1.11225e-07
1.11225e-07
1.11225e-07
1.11225e-07
1.11225e-07
1.11225e-07
1.11225e-07
1.11225e-07
6.85705e+08
6.85705e+08
6.85705e+08
6.85705e+08
6.85705e+08
6.85705e+08
6.85705e+08
6.85705e+08
6.85705e+08
6.85705e+08
6.85705e+08
6.85705e+08
6.85705e+08
6.85705e+08
6.85705e+08
6.85705e+08
6.85705e+08
6.85705e+08
6.85705e+08
6.85705e+08
6.85705e+08
6.85705e+08
6.85697e+08
6.85546e+08
6.84466e+08
6.80751e+08
6.72584e+08
6.58784e+08
6.38938e+08
6.13324e+08
5.82761e+08
5.48393e+08
5.11487e+08
4.73269e+08
4.34822e+08
3.97036e+08
3.60595e+08
3.25989e+08
2.93539e+08
2.63426e+08
2.35723e+08
2.10418e+08
1.87442e+08
1.66685e+08
1.4801e+08
1.31267e+08
1.16303e+08
1.02963e+08
9.10977e+07
8.05673e+07
7.12412e+07
6.29997e+07
5.57355e+07
4.93513e+07
4.37654e+07
3.89039e+07
3.47049e+07
3.11154e+07
2.80889e+07
2.5582e+07
2.35496e+07
2.19405e+07
2.06931e+07
1.9734e+07
1.89808e+07
1.83482e+07
1.77973e+07
1.73666e+07
1.69919e+07
1.66278e+07
1.62645e+07
1.59033e+07
1.55474e+07
1.52e+07
1.48632e+07
1.45379e+07
1.42244e+07
1.39228e+07
1.36331e+07
1.33548e+07
1.30871e+07
1.28292e+07
1.25807e+07
1.23414e+07
1.21105e+07
1.18875e+07
1.16717e+07
1.14627e+07
1.12606e+07
1.10652e+07
1.08759e+07
1.06924e+07
1.05145e+07
1.03424e+07
1.01765e+07
1.00162e+07
9.86075e+06
9.70927e+06
9.56168e+06
9.41836e+06
9.27961e+06
9.1452e+06
9.01457e+06
8.88718e+06
8.76254e+06
8.63981e+06
8.51818e+06
8.39847e+06
8.28481e+06
8.18269e+06
8.09302e+06
8.00872e+06
7.91525e+06
7.78389e+06
7.53007e+06
7.004e+06
5.97685e+06
4.31361e+06
2.31286e+06
764818
123135
7734.4
191.151
3.30408
0.117771
0.0192238
0.0102734
0.00910487
0.00893664
0.00904362
0.00921993
0.00946861
0.00957579
0.00954165
0.00944161
0.00926671
0.00910764
0.00888971
0.00878544
0.00869661
0.00860915
0.00853242
0.00845542
0.00837177
0.00830381
0.00820291
0.00809055
0.00797407
0.00774991
0.0073106
0.00631279
0.00416733
0.00123581
6.97687e-05
9.07446e-07
1.30724e-07
1.11447e-07
1.11225e-07
1.11225e-07
1.11225e-07
1.11225e-07
1.11225e-07
1.11225e-07
1.11225e-07
1.11225e-07
1.11225e-07
6.85705e+08
6.85705e+08
6.85705e+08
6.85705e+08
6.85705e+08
6.85705e+08
6.85705e+08
6.85705e+08
6.85705e+08
6.85705e+08
6.85705e+08
6.85705e+08
6.85705e+08
6.85705e+08
6.85705e+08
6.85705e+08
6.85705e+08
6.85705e+08
6.85705e+08
6.85705e+08
6.85705e+08
6.85705e+08
6.85697e+08
6.85546e+08
6.84466e+08
6.80751e+08
6.72584e+08
6.58784e+08
6.38937e+08
6.13324e+08
5.82761e+08
5.48393e+08
5.11487e+08
4.73269e+08
4.34822e+08
3.97036e+08
3.60595e+08
3.25989e+08
2.93539e+08
2.63426e+08
2.35723e+08
2.10418e+08
1.87442e+08
1.66684e+08
1.48009e+08
1.31267e+08
1.16303e+08
1.02963e+08
9.10975e+07
8.05671e+07
7.1241e+07
6.29995e+07
5.57353e+07
4.93511e+07
4.37653e+07
3.89037e+07
3.47047e+07
3.11152e+07
2.80887e+07
2.55818e+07
2.35495e+07
2.19403e+07
2.06929e+07
1.97338e+07
1.89806e+07
1.8348e+07
1.77971e+07
1.73664e+07
1.69917e+07
1.66276e+07
1.62643e+07
1.5903e+07
1.55471e+07
1.51997e+07
1.48629e+07
1.45376e+07
1.42241e+07
1.39226e+07
1.36329e+07
1.33545e+07
1.30868e+07
1.28289e+07
1.25805e+07
1.23411e+07
1.21102e+07
1.18872e+07
1.16714e+07
1.14624e+07
1.12603e+07
1.10649e+07
1.08756e+07
1.06921e+07
1.05142e+07
1.03421e+07
1.01762e+07
1.00159e+07
9.86045e+06
9.70898e+06
9.56138e+06
9.41806e+06
9.27931e+06
9.1449e+06
9.01427e+06
8.88689e+06
8.76224e+06
8.63951e+06
8.51788e+06
8.39818e+06
8.28454e+06
8.1824e+06
8.09271e+06
8.00839e+06
7.91497e+06
7.78366e+06
7.52999e+06
7.00423e+06
5.97757e+06
4.31482e+06
2.31409e+06
765512
123306
7748.89
191.551
3.31004
0.117883
0.0192314
0.0102736
0.00910424
0.00893594
0.0090429
0.00921916
0.00946786
0.0095751
0.00954099
0.00944101
0.00926617
0.00910716
0.00888926
0.00878503
0.00869623
0.00860881
0.00853212
0.00845515
0.00837153
0.00830361
0.00820274
0.00809042
0.00797396
0.00774984
0.00731056
0.00631278
0.00416735
0.00123584
6.97708e-05
9.0747e-07
1.30725e-07
1.11447e-07
1.11225e-07
1.11225e-07
1.11225e-07
1.11225e-07
1.11225e-07
1.11225e-07
1.11225e-07
1.11225e-07
1.11225e-07
6.85705e+08
6.85705e+08
6.85705e+08
6.85705e+08
6.85705e+08
6.85705e+08
6.85705e+08
6.85705e+08
6.85705e+08
6.85705e+08
6.85705e+08
6.85705e+08
6.85705e+08
6.85705e+08
6.85705e+08
6.85705e+08
6.85705e+08
6.85705e+08
6.85705e+08
6.85705e+08
6.85705e+08
6.85705e+08
6.85697e+08
6.85546e+08
6.84466e+08
6.80751e+08
6.72583e+08
6.58784e+08
6.38937e+08
6.13324e+08
5.82761e+08
5.48393e+08
5.11487e+08
4.73268e+08
4.34821e+08
3.97035e+08
3.60594e+08
3.25988e+08
2.93538e+08
2.63426e+08
2.35722e+08
2.10418e+08
1.87442e+08
1.66684e+08
1.48009e+08
1.31267e+08
1.16303e+08
1.02962e+08
9.10973e+07
8.0567e+07
7.12409e+07
6.29994e+07
5.57352e+07
4.9351e+07
4.37652e+07
3.89036e+07
3.47046e+07
3.11151e+07
2.80886e+07
2.55817e+07
2.35494e+07
2.19403e+07
2.06928e+07
1.97337e+07
1.89805e+07
1.83479e+07
1.77971e+07
1.73664e+07
1.69916e+07
1.66275e+07
1.62642e+07
1.5903e+07
1.5547e+07
1.51997e+07
1.48628e+07
1.45375e+07
1.4224e+07
1.39225e+07
1.36328e+07
1.33544e+07
1.30867e+07
1.28288e+07
1.25803e+07
1.23409e+07
1.21101e+07
1.18871e+07
1.16713e+07
1.14623e+07
1.12602e+07
1.10647e+07
1.08755e+07
1.0692e+07
1.0514e+07
1.0342e+07
1.0176e+07
1.00158e+07
9.86029e+06
9.70882e+06
9.56121e+06
9.41789e+06
9.27914e+06
9.14473e+06
9.0141e+06
8.88671e+06
8.76207e+06
8.63934e+06
8.5177e+06
8.39799e+06
8.28436e+06
8.18223e+06
8.09253e+06
8.0082e+06
7.91478e+06
7.78351e+06
7.52991e+06
7.0043e+06
5.97785e+06
4.31532e+06
2.31462e+06
765820
123385
7755.77
191.75
3.31307
0.117952
0.0192356
0.0102738
0.00910397
0.00893565
0.00904259
0.00921883
0.00946754
0.00957482
0.00954073
0.00944077
0.00926597
0.00910698
0.00888911
0.00878489
0.00869611
0.00860871
0.00853203
0.00845508
0.00837148
0.00830356
0.00820271
0.00809039
0.00797395
0.00774983
0.00731056
0.00631279
0.00416738
0.00123585
6.97729e-05
9.07494e-07
1.30725e-07
1.11447e-07
1.11225e-07
1.11225e-07
1.11225e-07
1.11225e-07
1.11225e-07
1.11225e-07
1.11225e-07
1.11225e-07
1.11225e-07
6.85705e+08
6.85705e+08
6.85705e+08
6.85705e+08
6.85705e+08
6.85705e+08
6.85705e+08
6.85705e+08
6.85705e+08
6.85705e+08
6.85705e+08
6.85705e+08
6.85705e+08
6.85705e+08
6.85705e+08
6.85705e+08
6.85705e+08
6.85705e+08
6.85705e+08
6.85705e+08
6.85705e+08
6.85705e+08
6.85697e+08
6.85546e+08
6.84466e+08
6.80751e+08
6.72583e+08
6.58784e+08
6.38937e+08
6.13324e+08
5.8276e+08
5.48392e+08
5.11486e+08
4.73268e+08
4.34821e+08
3.97035e+08
3.60594e+08
3.25988e+08
2.93538e+08
2.63425e+08
2.35722e+08
2.10418e+08
1.87442e+08
1.66684e+08
1.48009e+08
1.31267e+08
1.16303e+08
1.02962e+08
9.10972e+07
8.05669e+07
7.12408e+07
6.29993e+07
5.57351e+07
4.9351e+07
4.37651e+07
3.89035e+07
3.47046e+07
3.11151e+07
2.80886e+07
2.55816e+07
2.35493e+07
2.19402e+07
2.06928e+07
1.97336e+07
1.89805e+07
1.83478e+07
1.77971e+07
1.73664e+07
1.69916e+07
1.66275e+07
1.62642e+07
1.59029e+07
1.5547e+07
1.51996e+07
1.48628e+07
1.45375e+07
1.4224e+07
1.39224e+07
1.36327e+07
1.33544e+07
1.30866e+07
1.28288e+07
1.25803e+07
1.23409e+07
1.21101e+07
1.1887e+07
1.16712e+07
1.14623e+07
1.12601e+07
1.10647e+07
1.08754e+07
1.06919e+07
1.0514e+07
1.03419e+07
1.0176e+07
1.00157e+07
9.86023e+06
9.70875e+06
9.56115e+06
9.41783e+06
9.27907e+06
9.14466e+06
9.01403e+06
8.88664e+06
8.762e+06
8.63927e+06
8.51762e+06
8.39792e+06
8.28427e+06
8.18214e+06
8.09245e+06
8.00813e+06
7.9147e+06
7.78343e+06
7.52985e+06
7.00429e+06
5.97792e+06
4.31544e+06
2.31476e+06
765900
123406
7757.73
191.811
3.31411
0.117978
0.0192375
0.010274
0.00910391
0.00893559
0.00904251
0.00921874
0.00946746
0.00957476
0.00954067
0.00944072
0.00926593
0.00910694
0.00888908
0.00878487
0.0086961
0.0086087
0.00853202
0.00845507
0.00837148
0.00830356
0.00820271
0.0080904
0.00797395
0.00774983
0.00731057
0.00631281
0.0041674
0.00123587
6.97749e-05
9.07517e-07
1.30726e-07
1.11447e-07
1.11225e-07
1.11225e-07
1.11225e-07
1.11225e-07
1.11225e-07
1.11225e-07
1.11225e-07
1.11225e-07
1.11225e-07
6.85705e+08
6.85705e+08
6.85705e+08
6.85705e+08
6.85705e+08
6.85705e+08
6.85705e+08
6.85705e+08
6.85705e+08
6.85705e+08
6.85705e+08
6.85705e+08
6.85705e+08
6.85705e+08
6.85705e+08
6.85705e+08
6.85705e+08
6.85705e+08
6.85705e+08
6.85705e+08
6.85705e+08
6.85705e+08
6.85697e+08
6.85546e+08
6.84466e+08
6.80751e+08
6.72583e+08
6.58783e+08
6.38937e+08
6.13323e+08
5.8276e+08
5.48392e+08
5.11486e+08
4.73268e+08
4.34821e+08
3.97035e+08
3.60594e+08
3.25988e+08
2.93538e+08
2.63425e+08
2.35722e+08
2.10417e+08
1.87441e+08
1.66684e+08
1.48009e+08
1.31267e+08
1.16302e+08
1.02962e+08
9.10971e+07
8.05668e+07
7.12407e+07
6.29993e+07
5.57351e+07
4.93509e+07
4.37651e+07
3.89035e+07
3.47045e+07
3.1115e+07
2.80885e+07
2.55816e+07
2.35493e+07
2.19402e+07
2.06927e+07
1.97336e+07
1.89805e+07
1.83478e+07
1.77971e+07
1.73664e+07
1.69916e+07
1.66275e+07
1.62642e+07
1.59029e+07
1.5547e+07
1.51996e+07
1.48628e+07
1.45375e+07
1.4224e+07
1.39224e+07
1.36327e+07
1.33544e+07
1.30866e+07
1.28288e+07
1.25803e+07
1.23409e+07
1.21101e+07
1.1887e+07
1.16712e+07
1.14623e+07
1.12601e+07
1.10647e+07
1.08754e+07
1.06919e+07
1.0514e+07
1.03419e+07
1.01759e+07
1.00157e+07
9.86022e+06
9.70874e+06
9.56113e+06
9.41781e+06
9.27906e+06
9.14464e+06
9.01401e+06
8.88663e+06
8.76198e+06
8.63925e+06
8.5176e+06
8.39789e+06
8.28425e+06
8.18212e+06
8.09242e+06
8.0081e+06
7.91467e+06
7.7834e+06
7.52982e+06
7.00427e+06
5.97791e+06
4.31545e+06
2.31477e+06
765908
123408
7758.02
191.822
3.31435
0.117986
0.0192383
0.0102741
0.00910392
0.00893559
0.00904251
0.00921874
0.00946745
0.00957475
0.00954067
0.00944072
0.00926593
0.00910695
0.00888909
0.00878488
0.0086961
0.0086087
0.00853203
0.00845508
0.00837148
0.00830357
0.00820272
0.0080904
0.00797396
0.00774984
0.00731058
0.00631282
0.00416742
0.00123589
6.97769e-05
9.0754e-07
1.30726e-07
1.11447e-07
1.11225e-07
1.11225e-07
1.11225e-07
1.11225e-07
1.11225e-07
1.11225e-07
1.11225e-07
1.11225e-07
1.11225e-07
6.85705e+08
6.85705e+08
6.85705e+08
6.85705e+08
6.85705e+08
6.85705e+08
6.85705e+08
6.85705e+08
6.85705e+08
6.85705e+08
6.85705e+08
6.85705e+08
6.85705e+08
6.85705e+08
6.85705e+08
6.85705e+08
6.85705e+08
6.85705e+08
6.85705e+08
6.85705e+08
6.85705e+08
6.85705e+08
6.85697e+08
6.85546e+08
6.84466e+08
6.80751e+08
6.72583e+08
6.58783e+08
6.38937e+08
6.13323e+08
5.8276e+08
5.48392e+08
5.11486e+08
4.73267e+08
4.3482e+08
3.97034e+08
3.60593e+08
3.25987e+08
2.93537e+08
2.63425e+08
2.35722e+08
2.10417e+08
1.87441e+08
1.66684e+08
1.48009e+08
1.31266e+08
1.16302e+08
1.02962e+08
9.1097e+07
8.05667e+07
7.12406e+07
6.29992e+07
5.5735e+07
4.93509e+07
4.3765e+07
3.89034e+07
3.47045e+07
3.1115e+07
2.80885e+07
2.55816e+07
2.35492e+07
2.19401e+07
2.06927e+07
1.97336e+07
1.89804e+07
1.83478e+07
1.7797e+07
1.73664e+07
1.69916e+07
1.66275e+07
1.62642e+07
1.59029e+07
1.5547e+07
1.51996e+07
1.48628e+07
1.45375e+07
1.4224e+07
1.39224e+07
1.36327e+07
1.33544e+07
1.30866e+07
1.28288e+07
1.25803e+07
1.23409e+07
1.21101e+07
1.1887e+07
1.16712e+07
1.14623e+07
1.12601e+07
1.10647e+07
1.08754e+07
1.06919e+07
1.0514e+07
1.03419e+07
1.01759e+07
1.00157e+07
9.86022e+06
9.70874e+06
9.56113e+06
9.41781e+06
9.27905e+06
9.14464e+06
9.01401e+06
8.88662e+06
8.76198e+06
8.63925e+06
8.5176e+06
8.39789e+06
8.28425e+06
8.18212e+06
8.09242e+06
8.0081e+06
7.91467e+06
7.78339e+06
7.52981e+06
7.00424e+06
5.97787e+06
4.31541e+06
2.31474e+06
765898
123406
7757.92
191.822
3.31438
0.117988
0.0192387
0.0102741
0.00910395
0.00893561
0.00904253
0.00921876
0.00946747
0.00957477
0.00954069
0.00944074
0.00926595
0.00910697
0.0088891
0.00878489
0.00869611
0.00860871
0.00853204
0.00845509
0.00837149
0.00830358
0.00820272
0.00809041
0.00797396
0.00774985
0.00731058
0.00631283
0.00416745
0.00123591
6.97788e-05
9.07562e-07
1.30727e-07
1.11447e-07
1.11225e-07
1.11225e-07
1.11225e-07
1.11225e-07
1.11225e-07
1.11225e-07
1.11225e-07
1.11225e-07
1.11225e-07
6.85705e+08
6.85705e+08
6.85705e+08
6.85705e+08
6.85705e+08
6.85705e+08
6.85705e+08
6.85705e+08
6.85705e+08
6.85705e+08
6.85705e+08
6.85705e+08
6.85705e+08
6.85705e+08
6.85705e+08
6.85705e+08
6.85705e+08
6.85705e+08
6.85705e+08
6.85705e+08
6.85705e+08
6.85705e+08
6.85697e+08
6.85546e+08
6.84466e+08
6.80751e+08
6.72583e+08
6.58783e+08
6.38937e+08
6.13323e+08
5.8276e+08
5.48392e+08
5.11485e+08
4.73267e+08
4.3482e+08
3.97034e+08
3.60593e+08
3.25987e+08
2.93537e+08
2.63425e+08
2.35721e+08
2.10417e+08
1.87441e+08
1.66684e+08
1.48008e+08
1.31266e+08
1.16302e+08
1.02962e+08
9.10969e+07
8.05667e+07
7.12405e+07
6.29991e+07
5.57349e+07
4.93508e+07
4.37649e+07
3.89034e+07
3.47044e+07
3.11149e+07
2.80884e+07
2.55815e+07
2.35492e+07
2.19401e+07
2.06927e+07
1.97335e+07
1.89804e+07
1.83478e+07
1.7797e+07
1.73664e+07
1.69916e+07
1.66275e+07
1.62642e+07
1.59029e+07
1.5547e+07
1.51996e+07
1.48628e+07
1.45375e+07
1.4224e+07
1.39224e+07
1.36327e+07
1.33544e+07
1.30866e+07
1.28288e+07
1.25803e+07
1.23409e+07
1.21101e+07
1.1887e+07
1.16712e+07
1.14623e+07
1.12601e+07
1.10647e+07
1.08754e+07
1.06919e+07
1.0514e+07
1.03419e+07
1.01759e+07
1.00157e+07
9.86022e+06
9.70874e+06
9.56113e+06
9.41781e+06
9.27905e+06
9.14464e+06
9.01401e+06
8.88663e+06
8.76198e+06
8.63925e+06
8.5176e+06
8.3979e+06
8.28425e+06
8.18212e+06
8.09243e+06
8.0081e+06
7.91468e+06
7.78339e+06
7.5298e+06
7.00422e+06
5.97783e+06
4.31535e+06
2.31469e+06
765870
123400
7757.53
191.815
3.31435
0.117989
0.0192388
0.0102742
0.00910398
0.00893563
0.00904255
0.00921878
0.0094675
0.0095748
0.00954071
0.00944076
0.00926597
0.00910699
0.00888912
0.00878491
0.00869613
0.00860873
0.00853205
0.0084551
0.0083715
0.00830359
0.00820273
0.00809041
0.00797397
0.00774985
0.00731059
0.00631285
0.00416747
0.00123593
6.97806e-05
9.07583e-07
1.30727e-07
1.11447e-07
1.11225e-07
1.11225e-07
1.11225e-07
1.11225e-07
1.11225e-07
1.11225e-07
1.11225e-07
1.11225e-07
1.11225e-07
6.85705e+08
6.85705e+08
6.85705e+08
6.85705e+08
6.85705e+08
6.85705e+08
6.85705e+08
6.85705e+08
6.85705e+08
6.85705e+08
6.85705e+08
6.85705e+08
6.85705e+08
6.85705e+08
6.85705e+08
6.85705e+08
6.85705e+08
6.85705e+08
6.85705e+08
6.85705e+08
6.85705e+08
6.85705e+08
6.85697e+08
6.85546e+08
6.84466e+08
6.80751e+08
6.72583e+08
6.58783e+08
6.38937e+08
6.13323e+08
5.82759e+08
5.48391e+08
5.11485e+08
4.73267e+08
4.3482e+08
3.97034e+08
3.60593e+08
3.25987e+08
2.93537e+08
2.63424e+08
2.35721e+08
2.10417e+08
1.87441e+08
1.66683e+08
1.48008e+08
1.31266e+08
1.16302e+08
1.02962e+08
9.10968e+07
8.05666e+07
7.12405e+07
6.29991e+07
5.57349e+07
4.93507e+07
4.37649e+07
3.89033e+07
3.47044e+07
3.11149e+07
2.80884e+07
2.55815e+07
2.35491e+07
2.194e+07
2.06926e+07
1.97335e+07
1.89804e+07
1.83478e+07
1.7797e+07
1.73664e+07
1.69916e+07
1.66275e+07
1.62642e+07
1.59029e+07
1.5547e+07
1.51996e+07
1.48628e+07
1.45375e+07
1.4224e+07
1.39225e+07
1.36327e+07
1.33544e+07
1.30866e+07
1.28288e+07
1.25803e+07
1.23409e+07
1.21101e+07
1.1887e+07
1.16712e+07
1.14623e+07
1.12601e+07
1.10647e+07
1.08754e+07
1.06919e+07
1.0514e+07
1.03419e+07
1.01759e+07
1.00157e+07
9.86022e+06
9.70874e+06
9.56114e+06
9.41781e+06
9.27906e+06
9.14464e+06
9.01401e+06
8.88663e+06
8.76198e+06
8.63925e+06
8.51761e+06
8.3979e+06
8.28426e+06
8.18213e+06
8.09243e+06
8.00811e+06
7.91468e+06
7.7834e+06
7.5298e+06
7.00421e+06
5.97779e+06
4.31528e+06
2.31462e+06
765835
123393
7756.97
191.803
3.31423
0.117988
0.0192389
0.0102742
0.00910402
0.00893566
0.00904258
0.00921881
0.00946753
0.00957483
0.00954074
0.00944079
0.009266
0.00910701
0.00888914
0.00878493
0.00869614
0.00860874
0.00853206
0.00845511
0.00837151
0.00830359
0.00820274
0.00809042
0.00797397
0.00774986
0.0073106
0.00631287
0.00416749
0.00123594
6.97824e-05
9.07603e-07
1.30728e-07
1.11447e-07
1.11225e-07
1.11225e-07
1.11225e-07
1.11225e-07
1.11225e-07
1.11225e-07
1.11225e-07
1.11225e-07
1.11225e-07
6.85705e+08
6.85705e+08
6.85705e+08
6.85705e+08
6.85705e+08
6.85705e+08
6.85705e+08
6.85705e+08
6.85705e+08
6.85705e+08
6.85705e+08
6.85705e+08
6.85705e+08
6.85705e+08
6.85705e+08
6.85705e+08
6.85705e+08
6.85705e+08
6.85705e+08
6.85705e+08
6.85705e+08
6.85705e+08
6.85697e+08
6.85546e+08
6.84466e+08
6.80751e+08
6.72583e+08
6.58783e+08
6.38936e+08
6.13323e+08
5.82759e+08
5.48391e+08
5.11485e+08
4.73267e+08
4.3482e+08
3.97034e+08
3.60593e+08
3.25987e+08
2.93537e+08
2.63424e+08
2.35721e+08
2.10417e+08
1.87441e+08
1.66683e+08
1.48008e+08
1.31266e+08
1.16302e+08
1.02962e+08
9.10967e+07
8.05665e+07
7.12404e+07
6.2999e+07
5.57348e+07
4.93507e+07
4.37648e+07
3.89033e+07
3.47043e+07
3.11148e+07
2.80883e+07
2.55814e+07
2.35491e+07
2.194e+07
2.06926e+07
1.97335e+07
1.89803e+07
1.83477e+07
1.7797e+07
1.73664e+07
1.69916e+07
1.66275e+07
1.62642e+07
1.59029e+07
1.5547e+07
1.51996e+07
1.48628e+07
1.45375e+07
1.4224e+07
1.39225e+07
1.36327e+07
1.33544e+07
1.30866e+07
1.28288e+07
1.25803e+07
1.23409e+07
1.21101e+07
1.1887e+07
1.16712e+07
1.14623e+07
1.12601e+07
1.10647e+07
1.08754e+07
1.06919e+07
1.0514e+07
1.03419e+07
1.01759e+07
1.00157e+07
9.86022e+06
9.70874e+06
9.56114e+06
9.41782e+06
9.27906e+06
9.14465e+06
9.01401e+06
8.88663e+06
8.76198e+06
8.63926e+06
8.51761e+06
8.3979e+06
8.28426e+06
8.18213e+06
8.09244e+06
8.00811e+06
7.91469e+06
7.7834e+06
7.52981e+06
7.0042e+06
5.97776e+06
4.31523e+06
2.31457e+06
765805
123386
7756.45
191.791
3.3141
0.117986
0.0192389
0.0102743
0.00910405
0.00893569
0.00904261
0.00921884
0.00946756
0.00957486
0.00954077
0.00944082
0.00926603
0.00910703
0.00888916
0.00878494
0.00869616
0.00860876
0.00853208
0.00845512
0.00837152
0.0083036
0.00820275
0.00809043
0.00797398
0.00774987
0.00731062
0.00631288
0.00416752
0.00123596
6.97841e-05
9.07622e-07
1.30728e-07
1.11447e-07
1.11225e-07
1.11225e-07
1.11225e-07
1.11225e-07
1.11225e-07
1.11225e-07
1.11225e-07
1.11225e-07
1.11225e-07
6.85705e+08
6.85705e+08
6.85705e+08
6.85705e+08
6.85705e+08
6.85705e+08
6.85705e+08
6.85705e+08
6.85705e+08
6.85705e+08
6.85705e+08
6.85705e+08
6.85705e+08
6.85705e+08
6.85705e+08
6.85705e+08
6.85705e+08
6.85705e+08
6.85705e+08
6.85705e+08
6.85705e+08
6.85705e+08
6.85697e+08
6.85546e+08
6.84466e+08
6.80751e+08
6.72583e+08
6.58783e+08
6.38936e+08
6.13323e+08
5.82759e+08
5.48391e+08
5.11485e+08
4.73266e+08
4.34819e+08
3.97033e+08
3.60592e+08
3.25986e+08
2.93537e+08
2.63424e+08
2.35721e+08
2.10416e+08
1.87441e+08
1.66683e+08
1.48008e+08
1.31266e+08
1.16302e+08
1.02962e+08
9.10966e+07
8.05664e+07
7.12403e+07
6.29989e+07
5.57347e+07
4.93506e+07
4.37648e+07
3.89032e+07
3.47043e+07
3.11148e+07
2.80883e+07
2.55814e+07
2.35491e+07
2.194e+07
2.06925e+07
1.97334e+07
1.89803e+07
1.83477e+07
1.7797e+07
1.73663e+07
1.69916e+07
1.66274e+07
1.62642e+07
1.59029e+07
1.5547e+07
1.51996e+07
1.48628e+07
1.45375e+07
1.4224e+07
1.39225e+07
1.36327e+07
1.33544e+07
1.30866e+07
1.28288e+07
1.25803e+07
1.23409e+07
1.21101e+07
1.1887e+07
1.16712e+07
1.14623e+07
1.12601e+07
1.10647e+07
1.08754e+07
1.06919e+07
1.0514e+07
1.03419e+07
1.0176e+07
1.00157e+07
9.86022e+06
9.70875e+06
9.56114e+06
9.41782e+06
9.27906e+06
9.14465e+06
9.01402e+06
8.88663e+06
8.76199e+06
8.63926e+06
8.51761e+06
8.39791e+06
8.28427e+06
8.18214e+06
8.09244e+06
8.00812e+06
7.9147e+06
7.78341e+06
7.52981e+06
7.00419e+06
5.97773e+06
4.31519e+06
2.31453e+06
765784
123381
7756.07
191.782
3.31397
0.117984
0.0192389
0.0102743
0.00910408
0.00893571
0.00904263
0.00921886
0.00946758
0.00957488
0.0095408
0.00944084
0.00926605
0.00910706
0.00888918
0.00878496
0.00869618
0.00860877
0.00853209
0.00845513
0.00837153
0.00830361
0.00820275
0.00809043
0.00797399
0.00774988
0.00731063
0.0063129
0.00416754
0.00123598
6.97857e-05
9.0764e-07
1.30729e-07
1.11447e-07
1.11225e-07
1.11225e-07
1.11225e-07
1.11225e-07
1.11225e-07
1.11225e-07
1.11225e-07
1.11225e-07
1.11225e-07
6.85705e+08
6.85705e+08
6.85705e+08
6.85705e+08
6.85705e+08
6.85705e+08
6.85705e+08
6.85705e+08
6.85705e+08
6.85705e+08
6.85705e+08
6.85705e+08
6.85705e+08
6.85705e+08
6.85705e+08
6.85705e+08
6.85705e+08
6.85705e+08
6.85705e+08
6.85705e+08
6.85705e+08
6.85705e+08
6.85697e+08
6.85546e+08
6.84466e+08
6.80751e+08
6.72583e+08
6.58783e+08
6.38936e+08
6.13322e+08
5.82759e+08
5.48391e+08
5.11485e+08
4.73266e+08
4.34819e+08
3.97033e+08
3.60592e+08
3.25986e+08
2.93536e+08
2.63424e+08
2.35721e+08
2.10416e+08
1.8744e+08
1.66683e+08
1.48008e+08
1.31266e+08
1.16302e+08
1.02961e+08
9.10966e+07
8.05663e+07
7.12402e+07
6.29988e+07
5.57347e+07
4.93505e+07
4.37647e+07
3.89032e+07
3.47042e+07
3.11147e+07
2.80882e+07
2.55813e+07
2.3549e+07
2.19399e+07
2.06925e+07
1.97334e+07
1.89803e+07
1.83477e+07
1.7797e+07
1.73663e+07
1.69916e+07
1.66274e+07
1.62642e+07
1.59029e+07
1.5547e+07
1.51996e+07
1.48628e+07
1.45375e+07
1.4224e+07
1.39225e+07
1.36327e+07
1.33544e+07
1.30866e+07
1.28288e+07
1.25803e+07
1.23409e+07
1.21101e+07
1.1887e+07
1.16712e+07
1.14623e+07
1.12601e+07
1.10647e+07
1.08754e+07
1.06919e+07
1.0514e+07
1.03419e+07
1.0176e+07
1.00157e+07
9.86023e+06
9.70875e+06
9.56114e+06
9.41782e+06
9.27907e+06
9.14466e+06
9.01402e+06
8.88664e+06
8.76199e+06
8.63926e+06
8.51762e+06
8.39791e+06
8.28427e+06
8.18214e+06
8.09245e+06
8.00813e+06
7.9147e+06
7.78341e+06
7.52981e+06
7.00418e+06
5.97772e+06
4.31516e+06
2.3145e+06
765770
123378
7755.82
191.775
3.3139
0.117983
0.0192389
0.0102743
0.0091041
0.00893573
0.00904265
0.00921889
0.00946761
0.00957491
0.00954082
0.00944087
0.00926607
0.00910708
0.0088892
0.00878498
0.0086962
0.00860879
0.00853211
0.00845515
0.00837154
0.00830362
0.00820276
0.00809044
0.007974
0.00774989
0.00731065
0.00631293
0.00416757
0.00123599
6.97873e-05
9.07657e-07
1.30729e-07
1.11447e-07
1.11225e-07
1.11225e-07
1.11225e-07
1.11225e-07
1.11225e-07
1.11225e-07
1.11225e-07
1.11225e-07
1.11225e-07
6.85705e+08
6.85705e+08
6.85705e+08
6.85705e+08
6.85705e+08
6.85705e+08
6.85705e+08
6.85705e+08
6.85705e+08
6.85705e+08
6.85705e+08
6.85705e+08
6.85705e+08
6.85705e+08
6.85705e+08
6.85705e+08
6.85705e+08
6.85705e+08
6.85705e+08
6.85705e+08
6.85705e+08
6.85705e+08
6.85697e+08
6.85546e+08
6.84466e+08
6.80751e+08
6.72583e+08
6.58783e+08
6.38936e+08
6.13322e+08
5.82759e+08
5.48391e+08
5.11484e+08
4.73266e+08
4.34819e+08
3.97033e+08
3.60592e+08
3.25986e+08
2.93536e+08
2.63424e+08
2.3572e+08
2.10416e+08
1.8744e+08
1.66683e+08
1.48008e+08
1.31266e+08
1.16302e+08
1.02961e+08
9.10965e+07
8.05662e+07
7.12401e+07
6.29988e+07
5.57346e+07
4.93505e+07
4.37647e+07
3.89031e+07
3.47042e+07
3.11147e+07
2.80882e+07
2.55813e+07
2.3549e+07
2.19399e+07
2.06925e+07
1.97334e+07
1.89803e+07
1.83477e+07
1.77969e+07
1.73663e+07
1.69916e+07
1.66274e+07
1.62642e+07
1.59029e+07
1.5547e+07
1.51996e+07
1.48628e+07
1.45375e+07
1.4224e+07
1.39225e+07
1.36327e+07
1.33544e+07
1.30866e+07
1.28288e+07
1.25803e+07
1.23409e+07
1.21101e+07
1.1887e+07
1.16712e+07
1.14623e+07
1.12601e+07
1.10647e+07
1.08754e+07
1.06919e+07
1.0514e+07
1.03419e+07
1.0176e+07
1.00157e+07
9.86023e+06
9.70875e+06
9.56115e+06
9.41782e+06
9.27907e+06
9.14466e+06
9.01402e+06
8.88664e+06
8.762e+06
8.63927e+06
8.51762e+06
8.39792e+06
8.28427e+06
8.18215e+06
8.09246e+06
8.00813e+06
7.91471e+06
7.78342e+06
7.52981e+06
7.00418e+06
5.97771e+06
4.31515e+06
2.31448e+06
765760
123375
7755.64
191.771
3.31384
0.117982
0.0192389
0.0102744
0.00910412
0.00893575
0.00904267
0.00921891
0.00946763
0.00957493
0.00954084
0.00944089
0.00926609
0.0091071
0.00888922
0.008785
0.00869622
0.00860881
0.00853212
0.00845516
0.00837156
0.00830364
0.00820278
0.00809046
0.00797402
0.00774991
0.00731066
0.00631295
0.00416759
0.00123601
6.97888e-05
9.07673e-07
1.30729e-07
1.11447e-07
1.11225e-07
1.11225e-07
1.11225e-07
1.11225e-07
1.11225e-07
1.11225e-07
1.11225e-07
1.11225e-07
1.11225e-07
6.85705e+08
6.85705e+08
6.85705e+08
6.85705e+08
6.85705e+08
6.85705e+08
6.85705e+08
6.85705e+08
6.85705e+08
6.85705e+08
6.85705e+08
6.85705e+08
6.85705e+08
6.85705e+08
6.85705e+08
6.85705e+08
6.85705e+08
6.85705e+08
6.85705e+08
6.85705e+08
6.85705e+08
6.85705e+08
6.85697e+08
6.85546e+08
6.84466e+08
6.80751e+08
6.72583e+08
6.58783e+08
6.38936e+08
6.13322e+08
5.82759e+08
5.48391e+08
5.11484e+08
4.73266e+08
4.34819e+08
3.97033e+08
3.60592e+08
3.25986e+08
2.93536e+08
2.63423e+08
2.3572e+08
2.10416e+08
1.8744e+08
1.66683e+08
1.48008e+08
1.31266e+08
1.16301e+08
1.02961e+08
9.10964e+07
8.05661e+07
7.12401e+07
6.29987e+07
5.57346e+07
4.93504e+07
4.37646e+07
3.89031e+07
3.47041e+07
3.11146e+07
2.80881e+07
2.55812e+07
2.35489e+07
2.19398e+07
2.06924e+07
1.97333e+07
1.89802e+07
1.83476e+07
1.77969e+07
1.73663e+07
1.69916e+07
1.66274e+07
1.62642e+07
1.59029e+07
1.5547e+07
1.51996e+07
1.48628e+07
1.45375e+07
1.4224e+07
1.39225e+07
1.36327e+07
1.33544e+07
1.30866e+07
1.28288e+07
1.25803e+07
1.23409e+07
1.21101e+07
1.1887e+07
1.16712e+07
1.14623e+07
1.12601e+07
1.10647e+07
1.08754e+07
1.06919e+07
1.0514e+07
1.03419e+07
1.0176e+07
1.00157e+07
9.86023e+06
9.70875e+06
9.56115e+06
9.41783e+06
9.27907e+06
9.14466e+06
9.01403e+06
8.88665e+06
8.762e+06
8.63927e+06
8.51763e+06
8.39792e+06
8.28428e+06
8.18215e+06
8.09246e+06
8.00814e+06
7.91472e+06
7.78343e+06
7.52982e+06
7.00418e+06
5.9777e+06
4.31513e+06
2.31447e+06
765752
123374
7755.5
191.767
3.31379
0.117981
0.0192388
0.0102744
0.00910414
0.00893577
0.00904269
0.00921893
0.00946765
0.00957495
0.00954086
0.00944091
0.00926611
0.00910712
0.00888924
0.00878502
0.00869624
0.00860883
0.00853214
0.00845518
0.00837157
0.00830365
0.00820279
0.00809047
0.00797403
0.00774993
0.00731068
0.00631297
0.00416762
0.00123602
6.97902e-05
9.07688e-07
1.3073e-07
1.11447e-07
1.11225e-07
1.11225e-07
1.11225e-07
1.11225e-07
1.11225e-07
1.11225e-07
1.11225e-07
1.11225e-07
1.11225e-07
6.85705e+08
6.85705e+08
6.85705e+08
6.85705e+08
6.85705e+08
6.85705e+08
6.85705e+08
6.85705e+08
6.85705e+08
6.85705e+08
6.85705e+08
6.85705e+08
6.85705e+08
6.85705e+08
6.85705e+08
6.85705e+08
6.85705e+08
6.85705e+08
6.85705e+08
6.85705e+08
6.85705e+08
6.85705e+08
6.85697e+08
6.85546e+08
6.84466e+08
6.80751e+08
6.72583e+08
6.58783e+08
6.38936e+08
6.13322e+08
5.82759e+08
5.48391e+08
5.11484e+08
4.73266e+08
4.34819e+08
3.97033e+08
3.60592e+08
3.25986e+08
2.93536e+08