/*--------------------------------*- C++ -*----------------------------------*\
  =========                 |
  \\      /  F ield         | OpenFOAM: The Open Source CFD Toolbox
   \\    /   O peration     | Website:  https://openfoam.org
    \\  /    A nd           | Version:  13
     \\/     M anipulation  |
\*---------------------------------------------------------------------------*/
FoamFile
{
    format      ascii;
    class       volVectorField;
    location    "0.0019";
    object      U;
}
// * * * * * * * * * * * * * * * * * * * * * * * * * * * * * * * * * * * * * //

dimensions      [0 1 -1 0 0 0 0];

internalField   nonuniform List<vector> 
33333
(
(4.27012e-13 1.16705e-13 0)
(2.61249e-13 3.66664e-14 0)
(7.97589e-14 1.24987e-13 0)
(1.27065e-13 2.69345e-13 0)
(3.5612e-13 2.88418e-13 0)
(4.42848e-13 3.8375e-13 0)
(4.26237e-13 3.01953e-13 0)
(2.08486e-13 1.14247e-13 0)
(9.76466e-14 2.90342e-14 0)
(-1.34868e-13 1.03463e-14 0)
(-8.77851e-14 1.1298e-13 0)
(2.01634e-14 9.46019e-14 0)
(-9.26743e-14 1.24712e-13 0)
(7.17142e-14 1.54573e-13 0)
(-9.39017e-14 1.40403e-13 0)
(-1.19251e-13 1.42002e-13 0)
(-4.55613e-14 7.94906e-14 0)
(-9.23497e-14 2.48304e-13 0)
(-1.32473e-13 4.06046e-13 0)
(-1.12581e-13 3.18636e-13 0)
(-9.00739e-14 2.54625e-13 0)
(-4.47865e-14 2.58463e-13 0)
(-3.26726e-14 1.91203e-13 0)
(-2.3385e-13 1.6016e-13 0)
(-2.68183e-13 1.3776e-13 0)
(-3.95611e-13 2.05826e-13 0)
(-2.23779e-13 3.6109e-13 0)
(-2.18095e-13 3.93991e-13 0)
(-3.51428e-13 3.20624e-13 0)
(-2.14873e-13 2.94905e-13 0)
(-1.69843e-13 3.61712e-13 0)
(-1.49282e-13 3.95622e-13 0)
(-1.14731e-13 3.62203e-13 0)
(-1.22497e-13 3.5459e-13 0)
(2.27859e-14 3.33914e-13 0)
(-7.13504e-15 2.54901e-13 0)
(6.93525e-14 3.52634e-13 0)
(3.48642e-13 4.59395e-13 0)
(6.29368e-13 4.21696e-13 0)
(6.52246e-13 3.27976e-13 0)
(4.64426e-13 2.00797e-13 0)
(3.81876e-13 1.29474e-13 0)
(3.15051e-13 2.81186e-13 0)
(2.11284e-13 3.91518e-13 0)
(4.39319e-13 2.99409e-13 0)
(6.06597e-13 2.74217e-13 0)
(5.50511e-13 3.89833e-13 0)
(3.32775e-13 3.25944e-13 0)
(3.28084e-13 1.9255e-13 0)
(1.67988e-13 1.25338e-13 0)
(-1.13568e-13 2.12595e-13 0)
(3.92402e-14 3.49019e-13 0)
(9.37025e-14 4.60648e-13 0)
(1.70808e-13 4.54562e-13 0)
(3.30479e-13 4.03243e-13 0)
(5.03212e-13 2.88965e-13 0)
(2.16709e-13 2.38115e-13 0)
(-1.22007e-14 2.78888e-13 0)
(3.97736e-14 3.2074e-13 0)
(-1.11625e-13 2.01149e-13 0)
(-3.6964e-13 2.21942e-13 0)
(-3.74005e-13 2.97445e-13 0)
(-1.49312e-13 4.02871e-13 0)
(2.0365e-13 4.0083e-13 0)
(8.38159e-14 2.96821e-13 0)
(-2.17731e-14 2.47815e-13 0)
(2.02626e-14 1.85857e-13 0)
(-6.00623e-15 3.12668e-13 0)
(-4.56431e-14 4.75766e-13 0)
(4.33015e-14 4.58918e-13 0)
(2.11784e-13 2.9383e-13 0)
(2.97129e-13 3.11678e-13 0)
(1.69023e-13 1.88891e-13 0)
(1.27626e-13 1.90977e-13 0)
(2.18302e-14 1.70429e-13 0)
(-2.00144e-13 2.70347e-13 0)
(-1.92594e-16 3.9836e-13 0)
(9.71742e-14 4.51365e-13 0)
(6.85376e-14 4.60919e-13 0)
(1.48944e-13 4.10628e-13 0)
(2.67805e-13 5.06414e-13 0)
(3.82896e-14 4.55602e-13 0)
(-1.80782e-13 5.55822e-13 0)
(-1.04335e-13 6.42435e-13 0)
(1.12994e-13 4.24722e-13 0)
(-1.53465e-13 1.99874e-13 0)
(-5.26818e-13 3.82355e-13 0)
(-3.70817e-13 4.08479e-13 0)
(-1.88658e-13 3.44936e-13 0)
(4.22607e-14 4.29105e-13 0)
(2.10609e-13 3.76871e-13 0)
(3.02609e-14 2.22188e-13 0)
(-6.21732e-14 3.71913e-13 0)
(7.7871e-14 4.80968e-13 0)
(1.78078e-13 4.504e-13 0)
(3.3561e-13 2.56705e-13 0)
(4.02449e-13 3.02542e-13 0)
(3.10317e-13 3.54614e-13 0)
(4.32518e-13 3.12147e-13 0)
(2.12496e-13 2.47796e-13 0)
(-2.27814e-13 3.44664e-13 0)
(-1.0828e-13 4.17766e-13 0)
(-5.99825e-14 4.91565e-13 0)
(5.46952e-14 4.37716e-13 0)
(8.6224e-14 2.27534e-13 0)
(8.69554e-14 4.24325e-13 0)
(-2.02618e-13 4.27384e-13 0)
(-5.31811e-13 2.72267e-13 0)
(-5.148e-13 2.21637e-13 0)
(-5.69292e-13 7.81013e-15 0)
(-5.5611e-13 -1.84117e-15 0)
(-6.47746e-13 -3.99466e-15 0)
(-5.53302e-13 2.03582e-13 0)
(2.7008e-14 2.24194e-13 0)
(7.96549e-14 3.0317e-13 0)
(9.48289e-14 2.87153e-13 0)
(2.715e-13 3.28148e-13 0)
(1.66271e-13 3.76821e-13 0)
(8.30987e-14 4.54756e-13 0)
(9.17546e-14 4.85039e-13 0)
(1.33451e-13 3.87715e-13 0)
(2.36444e-13 3.87734e-13 0)
(1.18552e-13 2.77334e-13 0)
(1.19607e-13 2.79706e-13 0)
(1.62079e-14 1.85757e-13 0)
(-2.694e-13 2.50625e-13 0)
(-1.79926e-13 4.13371e-13 0)
(-8.98874e-14 4.31006e-13 0)
(2.07417e-14 4.23251e-13 0)
(-3.95177e-14 3.05286e-13 0)
(3.46581e-14 2.60798e-13 0)
(4.84613e-14 1.88684e-13 0)
(-2.44885e-13 2.38468e-13 0)
(-3.05456e-13 2.03922e-13 0)
(-2.41932e-13 1.85146e-13 0)
(-1.08757e-13 1.86542e-13 0)
(-5.04277e-14 1.51127e-13 0)
(-6.82942e-14 1.77655e-13 0)
(3.42226e-14 2.52993e-13 0)
(-1.3676e-13 3.67228e-13 0)
(-3.01746e-13 4.31007e-13 0)
(-2.01913e-13 3.92836e-13 0)
(6.43542e-14 3.62423e-13 0)
(2.47151e-13 4.68074e-13 0)
(4.7726e-13 4.83177e-13 0)
(6.05959e-13 4.86477e-13 0)
(3.30922e-13 4.44591e-13 0)
(-1.72956e-13 4.4071e-13 0)
(-3.16854e-13 4.13333e-13 0)
(-1.42425e-13 3.99374e-13 0)
(7.76325e-15 3.90677e-13 0)
(6.7552e-14 4.06845e-13 0)
(-7.63277e-15 4.87684e-13 0)
(7.77488e-14 5.17427e-13 0)
(1.86056e-13 3.71379e-13 0)
(1.71881e-13 4.1386e-13 0)
(-1.10161e-13 2.4426e-13 0)
(-3.18089e-13 2.65593e-13 0)
(-3.73429e-13 2.77225e-13 0)
(-1.80108e-13 3.27218e-13 0)
(-6.67417e-14 2.23529e-13 0)
(-1.3894e-14 3.33829e-13 0)
(1.35947e-13 4.85641e-13 0)
(2.36591e-13 3.86022e-13 0)
(6.25485e-13 4.44294e-13 0)
(5.70651e-13 2.33269e-13 0)
(5.29444e-13 2.90104e-13 0)
(2.97116e-13 4.15587e-13 0)
(2.90875e-13 6.38526e-13 0)
(3.46575e-13 8.10529e-13 0)
(4.55278e-13 7.94371e-13 0)
(3.54783e-13 7.2582e-13 0)
(2.35881e-13 4.03577e-13 0)
(1.65142e-13 4.19005e-13 0)
(5.86801e-14 4.6991e-13 0)
(-9.26016e-14 3.15703e-13 0)
(-5.4082e-14 4.38231e-13 0)
(-2.81481e-14 4.00502e-13 0)
(-1.02322e-13 6.22173e-13 0)
(-3.23026e-14 6.35498e-13 0)
(-1.49114e-13 5.13414e-13 0)
(-1.32459e-13 5.74617e-13 0)
(-2.58327e-14 4.54673e-13 0)
(1.05425e-13 5.01993e-13 0)
(-3.49002e-14 4.54988e-13 0)
(-1.99993e-13 6.70224e-13 0)
(-1.90692e-13 4.9142e-13 0)
(-2.7248e-13 6.98944e-13 0)
(-2.12281e-13 5.20765e-13 0)
(-2.75892e-13 5.00843e-13 0)
(-3.44165e-13 4.99946e-13 0)
(-2.26995e-13 3.89456e-13 0)
(-4.14724e-14 4.91555e-13 0)
(-1.64702e-13 5.67028e-13 0)
(-4.84552e-13 7.23077e-13 0)
(-2.77181e-13 5.64807e-13 0)
(-2.22396e-13 8.00557e-13 0)
(-2.54014e-13 7.95311e-13 0)
(-1.44908e-13 8.66691e-13 0)
(-1.26965e-13 8.85583e-13 0)
(-4.02544e-14 9.10022e-13 0)
(5.18794e-14 7.36747e-13 0)
(2.8297e-13 6.36592e-13 0)
(2.71041e-13 6.03536e-13 0)
(4.14021e-13 6.31316e-13 0)
(5.30142e-13 5.19034e-13 0)
(4.47709e-13 4.52854e-13 0)
(5.87071e-13 3.41495e-13 0)
(5.92945e-13 3.25197e-13 0)
(3.86659e-13 4.23565e-13 0)
(4.43662e-13 5.24176e-13 0)
(6.7678e-13 3.66891e-13 0)
(4.55513e-13 3.9313e-13 0)
(2.07275e-13 2.84614e-13 0)
(3.20891e-13 3.60903e-13 0)
(2.58095e-13 4.20592e-13 0)
(4.20358e-14 4.64405e-13 0)
(2.16214e-13 3.09594e-13 0)
(2.17653e-13 4.06573e-13 0)
(6.08432e-14 5.24549e-13 0)
(1.50074e-13 4.47024e-13 0)
(2.65314e-13 5.28482e-13 0)
(1.84041e-13 4.55649e-13 0)
(1.37382e-13 3.97757e-13 0)
(-8.58223e-14 4.83247e-13 0)
(-2.35149e-13 4.2358e-13 0)
(-2.45904e-13 5.4319e-13 0)
(-2.45405e-13 7.26476e-13 0)
(-2.74134e-13 8.12323e-13 0)
(-1.57156e-13 5.76837e-13 0)
(-1.3516e-14 2.78525e-13 0)
(4.24363e-14 3.22973e-13 0)
(1.03203e-13 2.71712e-13 0)
(1.82088e-13 2.70768e-13 0)
(1.21127e-13 3.12857e-13 0)
(-9.12627e-14 3.5949e-13 0)
(1.14045e-13 1.87084e-13 0)
(1.76931e-13 2.72305e-13 0)
(8.55903e-14 2.85126e-13 0)
(2.46543e-13 2.49015e-13 0)
(1.27255e-13 4.32548e-13 0)
(-8.15458e-14 4.75593e-13 0)
(1.31764e-14 3.19297e-13 0)
(1.08239e-13 2.93297e-13 0)
(4.00153e-14 3.0765e-13 0)
(1.45219e-13 3.0852e-13 0)
(1.60605e-13 4.21944e-13 0)
(-3.41708e-14 3.77307e-13 0)
(5.04543e-14 3.97368e-13 0)
(-7.51798e-14 5.81523e-13 0)
(-1.33192e-13 6.6953e-13 0)
(-1.08423e-13 6.49719e-13 0)
(-3.35603e-13 6.73274e-13 0)
(-3.43734e-13 9.43225e-13 0)
(-2.25266e-13 7.40526e-13 0)
(1.6403e-14 7.18565e-13 0)
(5.40731e-14 6.19613e-13 0)
(1.67771e-15 4.6758e-13 0)
(1.98402e-13 6.02811e-13 0)
(2.03931e-13 6.35008e-13 0)
(-3.01632e-14 5.24506e-13 0)
(2.23036e-13 3.71131e-13 0)
(4.29585e-13 4.69126e-13 0)
(3.11065e-13 5.29563e-13 0)
(4.08013e-13 4.93974e-13 0)
(2.73017e-13 4.25108e-13 0)
(-7.9442e-14 4.72604e-13 0)
(6.65087e-14 3.7785e-13 0)
(7.87512e-14 4.03916e-13 0)
(-1.63658e-13 4.61481e-13 0)
(-8.2115e-15 3.32909e-13 0)
(-1.13441e-14 5.54968e-13 0)
(-4.43449e-13 2.0953e-13 0)
(-5.75266e-13 4.58915e-14 0)
(-6.1905e-13 9.02861e-14 0)
(-6.88858e-13 1.37478e-13 0)
(-5.89036e-13 1.87358e-13 0)
(-5.32513e-13 7.18752e-14 0)
(-4.61393e-13 4.02431e-13 0)
(-1.82629e-13 4.47712e-13 0)
(5.16214e-14 1.9782e-13 0)
(2.94172e-13 3.03011e-13 0)
(4.21596e-13 2.95297e-13 0)
(3.38561e-13 3.33822e-13 0)
(2.22103e-13 4.34517e-13 0)
(4.68363e-14 4.85472e-13 0)
(5.50005e-14 3.63241e-13 0)
(3.72976e-14 4.04409e-13 0)
(4.63023e-14 2.17709e-13 0)
(2.76495e-13 3.5948e-13 0)
(5.71471e-14 4.11209e-13 0)
(-1.75546e-13 4.8219e-13 0)
(-9.37063e-14 3.2902e-13 0)
(-1.5516e-14 3.78908e-13 0)
(-8.61972e-14 6.32874e-13 0)
(-2.74424e-13 4.40601e-13 0)
(-2.10691e-13 6.37021e-13 0)
(-2.17857e-13 3.98931e-13 0)
(-2.87521e-13 2.36876e-13 0)
(-2.97277e-13 3.1427e-13 0)
(-1.89789e-13 3.89306e-13 0)
(-7.98392e-14 5.00002e-13 0)
(-6.38325e-15 4.68549e-13 0)
(5.8963e-14 5.48489e-13 0)
(7.62481e-14 5.81798e-13 0)
(2.92186e-14 4.12266e-13 0)
(-7.31735e-14 4.74258e-13 0)
(1.04037e-14 6.1795e-13 0)
(2.95739e-13 6.46546e-13 0)
(3.33665e-13 6.3825e-13 0)
(3.32113e-13 5.61424e-13 0)
(5.1005e-13 3.02185e-13 0)
(2.65348e-13 3.71858e-13 0)
(-1.28404e-13 3.8433e-13 0)
(-9.65935e-14 5.2479e-13 0)
(-3.19567e-14 7.66302e-13 0)
(-3.03901e-14 7.40893e-13 0)
(1.65253e-13 4.6736e-13 0)
(7.75442e-14 4.46792e-13 0)
(-9.4923e-14 5.15008e-13 0)
(4.41772e-14 4.15474e-13 0)
(-3.37178e-14 4.71091e-13 0)
(-3.43681e-13 3.66109e-13 0)
(-2.45317e-13 2.11311e-13 0)
(-2.181e-13 3.28659e-13 0)
(-7.41143e-14 5.10505e-13 0)
(-8.57453e-14 7.04419e-13 0)
(1.3302e-13 7.51973e-13 0)
(9.66677e-14 6.6034e-13 0)
(1.19348e-13 4.38435e-13 0)
(5.90009e-13 3.83797e-13 0)
(5.66817e-13 1.43547e-13 0)
(5.5537e-13 6.97135e-13 0)
(5.67104e-13 6.85099e-13 0)
(4.80618e-13 6.93977e-13 0)
(3.7717e-13 9.47857e-13 0)
(3.75531e-13 1.09952e-12 0)
(2.03872e-13 1.01347e-12 0)
(1.66356e-13 8.59888e-13 0)
(2.59477e-13 7.2901e-13 0)
(2.64386e-14 5.76959e-13 0)
(-2.04312e-13 6.83594e-13 0)
(-9.44024e-14 7.75906e-13 0)
(9.23952e-14 7.67353e-13 0)
(3.49788e-14 7.12345e-13 0)
(-1.27132e-13 8.13471e-13 0)
(-1.94348e-13 7.11739e-13 0)
(-1.76799e-13 7.85051e-13 0)
(-9.10943e-14 7.22753e-13 0)
(-1.61743e-14 6.73851e-13 0)
(-1.36225e-15 5.06888e-13 0)
(-1.60699e-13 7.07064e-13 0)
(-9.9591e-14 7.89128e-13 0)
(-1.08519e-13 9.11399e-13 0)
(-3.12835e-13 8.57018e-13 0)
(-3.45301e-13 8.63775e-13 0)
(-3.27291e-13 8.26138e-13 0)
(-3.27564e-13 7.2696e-13 0)
(-8.29806e-14 6.63109e-13 0)
(-1.05048e-13 4.94549e-13 0)
(-4.39042e-13 5.25516e-13 0)
(-2.22385e-13 6.38107e-13 0)
(-9.48364e-14 6.79795e-13 0)
(-1.44227e-13 8.5309e-13 0)
(-5.01162e-14 9.12411e-13 0)
(-5.25836e-14 9.50472e-13 0)
(-1.06144e-13 9.69773e-13 0)
(-1.69272e-13 9.34177e-13 0)
(4.22065e-14 7.80838e-13 0)
(3.75081e-13 6.81768e-13 0)
(5.15612e-13 8.23053e-13 0)
(4.09738e-13 8.12585e-13 0)
(2.63706e-13 7.12329e-13 0)
(3.94775e-13 6.05118e-13 0)
(5.12835e-13 4.35611e-13 0)
(5.22632e-13 5.07737e-13 0)
(3.98904e-13 7.12621e-13 0)
(4.93089e-13 5.86474e-13 0)
(4.72244e-13 4.50121e-13 0)
(2.84326e-13 3.65854e-13 0)
(3.72171e-13 4.16328e-13 0)
(3.00584e-13 2.86444e-13 0)
(-7.54775e-14 3.6795e-13 0)
(9.47476e-14 4.45347e-13 0)
(3.56683e-13 4.54179e-13 0)
(2.01019e-13 6.98266e-13 0)
(2.61553e-13 7.35689e-13 0)
(3.64137e-13 8.62706e-13 0)
(7.0818e-14 8.95405e-13 0)
(1.18179e-14 8.13616e-13 0)
(-4.36098e-14 8.20545e-13 0)
(-1.41397e-13 8.25612e-13 0)
(-1.48194e-13 1.00096e-12 0)
(-2.06219e-13 9.35092e-13 0)
(-2.95462e-13 9.36753e-13 0)
(-2.70778e-13 9.24885e-13 0)
(-1.25277e-13 9.48108e-13 0)
(1.62325e-14 7.5081e-13 0)
(4.90721e-14 6.59505e-13 0)
(3.16524e-14 5.0251e-13 0)
(5.88962e-14 2.64656e-13 0)
(-4.34189e-14 3.06312e-13 0)
(1.25957e-13 4.28483e-13 0)
(3.36604e-13 3.9294e-13 0)
(1.43505e-13 4.61521e-13 0)
(2.51572e-13 3.86238e-13 0)
(2.10747e-13 2.57741e-13 0)
(-2.19045e-13 2.94147e-13 0)
(-7.79338e-14 3.3871e-13 0)
(1.12865e-13 4.16441e-13 0)
(1.35887e-14 5.02997e-13 0)
(1.79325e-13 5.70816e-13 0)
(2.44883e-13 5.2385e-13 0)
(1.8317e-14 6.37325e-13 0)
(1.87161e-14 6.46193e-13 0)
(8.06327e-14 5.38674e-13 0)
(7.76618e-14 8.70842e-13 0)
(-2.30771e-13 9.73225e-13 0)
(-2.02667e-13 9.34631e-13 0)
(-3.34744e-13 9.62954e-13 0)
(-3.90065e-13 1.11353e-12 0)
(-5.25879e-14 1.0514e-12 0)
(9.89949e-15 8.43074e-13 0)
(8.40878e-15 8.64263e-13 0)
(1.18451e-13 7.11466e-13 0)
(8.13833e-14 4.43767e-13 0)
(-3.97171e-14 4.9773e-13 0)
(2.64875e-13 6.17386e-13 0)
(5.06782e-13 5.78703e-13 0)
(3.16844e-13 4.62786e-13 0)
(3.89393e-13 3.3693e-13 0)
(3.02168e-13 1.93791e-13 0)
(-1.31462e-13 2.51366e-13 0)
(-6.38678e-14 3.72857e-13 0)
(7.32953e-14 3.46436e-13 0)
(-7.64212e-14 3.83003e-13 0)
(3.21535e-14 4.96176e-13 0)
(-1.24756e-13 4.82939e-13 0)
(-5.782e-13 4.88444e-13 0)
(-5.90239e-13 4.22069e-13 0)
(-5.34565e-13 2.65988e-13 0)
(-5.06509e-13 3.53122e-13 0)
(-5.60162e-13 5.11557e-13 0)
(-4.69594e-13 5.19034e-13 0)
(-2.80459e-13 5.73598e-13 0)
(-2.56746e-13 6.11893e-13 0)
(-6.33639e-15 5.81411e-13 0)
(2.48756e-13 7.84413e-13 0)
(3.46015e-13 7.30056e-13 0)
(2.84169e-13 5.65245e-13 0)
(2.0511e-13 4.89998e-13 0)
(4.13794e-14 5.65396e-13 0)
(8.26142e-14 6.37001e-13 0)
(2.51527e-14 4.96538e-13 0)
(4.4677e-14 4.1644e-13 0)
(3.22606e-13 3.07444e-13 0)
(1.4288e-13 2.31242e-13 0)
(-2.68375e-13 3.95875e-13 0)
(-2.12093e-13 4.74736e-13 0)
(1.18792e-13 4.92861e-13 0)
(-1.13274e-14 6.10305e-13 0)
(-1.32771e-13 6.95089e-13 0)
(-8.90657e-14 7.70513e-13 0)
(-4.1955e-13 7.31959e-13 0)
(-3.77453e-13 6.39182e-13 0)
(-2.00315e-13 6.77925e-13 0)
(-9.26955e-14 7.62427e-13 0)
(-3.18218e-14 7.90501e-13 0)
(3.15249e-14 7.8414e-13 0)
(8.36084e-14 9.13486e-13 0)
(-1.28617e-14 8.79166e-13 0)
(-6.86202e-14 9.69708e-13 0)
(3.26627e-14 9.0986e-13 0)
(7.53315e-14 1.07662e-12 0)
(1.57881e-13 1.07691e-12 0)
(2.70804e-13 7.96588e-13 0)
(2.45295e-13 8.83698e-13 0)
(4.38196e-13 6.69685e-13 0)
(3.66576e-13 6.76227e-13 0)
(-4.75759e-14 5.55801e-13 0)
(4.75729e-14 6.02265e-13 0)
(8.16089e-14 7.29492e-13 0)
(-2.18464e-13 7.03661e-13 0)
(-1.24579e-13 5.67504e-13 0)
(1.11456e-13 4.29443e-13 0)
(6.19965e-14 5.36923e-13 0)
(6.48099e-14 6.18873e-13 0)
(1.09447e-14 4.9049e-13 0)
(-3.78573e-13 4.83133e-13 0)
(-3.36479e-13 5.08209e-13 0)
(-8.5263e-14 4.40631e-13 0)
(1.42143e-13 5.20805e-13 0)
(1.08996e-13 8.00002e-13 0)
(-7.91049e-15 7.11753e-13 0)
(-4.26762e-14 5.11666e-13 0)
(2.74538e-14 6.96404e-13 0)
(4.01369e-13 6.9662e-13 0)
(5.73932e-13 3.51296e-13 0)
(4.77803e-13 8.93568e-13 0)
(3.93181e-13 6.90454e-13 0)
(5.82388e-13 6.13615e-13 0)
(6.19107e-13 6.96897e-13 0)
(4.57472e-13 8.69681e-13 0)
(1.85427e-13 8.35717e-13 0)
(4.68164e-14 7.7988e-13 0)
(3.232e-14 6.57939e-13 0)
(-7.49184e-15 5.28778e-13 0)
(-5.06791e-15 7.05386e-13 0)
(-8.00248e-14 7.14288e-13 0)
(-1.20282e-13 8.33054e-13 0)
(-1.52932e-14 6.65325e-13 0)
(-7.02607e-14 6.11824e-13 0)
(-1.47816e-13 6.02609e-13 0)
(-1.50186e-13 6.32387e-13 0)
(-1.2248e-13 6.42033e-13 0)
(-9.03359e-14 6.69719e-13 0)
(-2.59811e-14 6.28593e-13 0)
(-1.5343e-14 5.837e-13 0)
(-4.89586e-14 6.97342e-13 0)
(-1.31827e-13 6.26442e-13 0)
(-2.68821e-13 6.61093e-13 0)
(-2.54623e-13 9.41847e-13 0)
(-3.53675e-13 1.05912e-12 0)
(-3.38915e-13 1.11914e-12 0)
(-2.88181e-13 8.54896e-13 0)
(-3.63566e-13 5.92361e-13 0)
(-3.09e-13 5.75366e-13 0)
(-1.91217e-13 7.79643e-13 0)
(-9.56777e-15 6.38281e-13 0)
(2.10966e-14 6.83138e-13 0)
(-7.21422e-14 7.69756e-13 0)
(-5.87672e-14 8.4138e-13 0)
(-9.57243e-14 8.07702e-13 0)
(-1.2536e-13 8.63352e-13 0)
(-4.87732e-15 1.00043e-12 0)
(3.96283e-13 9.17666e-13 0)
(5.35491e-13 8.42454e-13 0)
(3.69782e-13 7.3172e-13 0)
(2.49807e-13 8.56069e-13 0)
(3.32939e-13 9.5107e-13 0)
(4.45221e-13 8.31252e-13 0)
(6.01855e-13 7.12407e-13 0)
(4.41846e-13 6.33685e-13 0)
(3.59743e-13 6.88894e-13 0)
(3.20224e-13 4.74467e-13 0)
(2.18461e-13 3.94971e-13 0)
(2.81226e-13 4.17537e-13 0)
(2.1546e-13 3.59184e-13 0)
(1.03477e-13 3.8724e-13 0)
(2.09016e-13 5.72886e-13 0)
(4.59502e-13 7.05953e-13 0)
(3.11626e-13 6.2984e-13 0)
(2.89832e-13 7.50296e-13 0)
(3.74105e-13 7.3828e-13 0)
(1.05005e-13 8.08803e-13 0)
(5.29525e-14 1.03663e-12 0)
(-6.04857e-14 1.1186e-12 0)
(-4.90335e-14 1.14723e-12 0)
(-9.1499e-14 1.04575e-12 0)
(-2.93375e-13 9.87359e-13 0)
(-2.96783e-13 8.37117e-13 0)
(-1.70468e-13 9.35595e-13 0)
(-1.4402e-13 9.51697e-13 0)
(-1.15767e-13 1.03512e-12 0)
(-2.66344e-14 1.03977e-12 0)
(-7.91202e-14 8.91915e-13 0)
(-6.3728e-14 5.91285e-13 0)
(4.25812e-14 4.76201e-13 0)
(1.54203e-13 5.18379e-13 0)
(2.37208e-13 4.03139e-13 0)
(1.23261e-13 3.82804e-13 0)
(1.24476e-13 5.06112e-13 0)
(9.70958e-14 4.65785e-13 0)
(-6.00163e-14 5.04745e-13 0)
(6.16845e-14 5.77595e-13 0)
(2.26351e-13 6.77469e-13 0)
(1.15016e-13 5.93937e-13 0)
(1.20077e-13 5.59121e-13 0)
(2.00211e-13 4.29954e-13 0)
(7.76507e-14 5.09891e-13 0)
(-1.36133e-14 7.73639e-13 0)
(1.48981e-13 8.21418e-13 0)
(2.24925e-13 7.79491e-13 0)
(-2.56156e-13 7.64536e-13 0)
(-3.26486e-13 9.05258e-13 0)
(-1.46073e-13 8.05698e-13 0)
(-1.75422e-13 9.34544e-13 0)
(-1.69815e-13 8.93082e-13 0)
(-2.90553e-14 9.65132e-13 0)
(-6.42829e-14 1.05736e-12 0)
(-4.14292e-14 9.71525e-13 0)
(-7.97408e-16 8.23871e-13 0)
(1.29347e-14 6.02251e-13 0)
(2.38063e-13 6.56206e-13 0)
(3.60629e-13 3.96263e-13 0)
(1.47727e-13 3.28814e-13 0)
(2.92111e-13 4.20582e-13 0)
(2.29687e-13 3.02424e-13 0)
(1.9384e-14 2.50624e-13 0)
(1.31789e-13 4.17814e-13 0)
(8.8867e-14 6.13098e-13 0)
(-8.16544e-14 4.64627e-13 0)
(3.57888e-14 5.16529e-13 0)
(-1.04978e-13 4.08594e-13 0)
(-5.65312e-13 5.02757e-13 0)
(-6.53489e-13 7.05857e-13 0)
(-5.7002e-13 6.52299e-13 0)
(-4.5011e-13 6.02616e-13 0)
(-4.91087e-13 6.15824e-13 0)
(-4.0778e-13 7.20147e-13 0)
(-2.51821e-13 7.09703e-13 0)
(-2.34858e-13 8.34872e-13 0)
(1.66299e-13 7.76784e-13 0)
(4.33246e-13 9.25491e-13 0)
(2.17393e-13 8.54649e-13 0)
(6.60939e-14 7.71347e-13 0)
(1.40506e-13 6.93614e-13 0)
(1.53937e-13 6.04151e-13 0)
(4.03635e-14 6.72345e-13 0)
(-1.48974e-13 5.66612e-13 0)
(-9.25128e-14 5.68116e-13 0)
(1.54455e-13 5.12786e-13 0)
(1.59026e-13 4.6526e-13 0)
(-2.68687e-14 5.57175e-13 0)
(-6.59999e-14 6.86561e-13 0)
(1.38744e-13 7.33977e-13 0)
(7.19703e-14 5.42561e-13 0)
(-7.7135e-14 6.31664e-13 0)
(-9.87715e-14 5.9145e-13 0)
(-3.41396e-13 7.30557e-13 0)
(-3.42191e-13 1.08828e-12 0)
(-2.11382e-13 1.11926e-12 0)
(-1.61041e-13 9.62319e-13 0)
(-9.37364e-14 7.82319e-13 0)
(1.00837e-13 8.45749e-13 0)
(1.26132e-13 7.75858e-13 0)
(8.05098e-14 7.90918e-13 0)
(3.73605e-14 9.13676e-13 0)
(8.13829e-14 1.13907e-12 0)
(1.57355e-13 1.17532e-12 0)
(-2.0961e-14 1.21682e-12 0)
(1.14611e-13 1.20601e-12 0)
(1.42191e-13 8.66494e-13 0)
(2.72195e-13 7.57847e-13 0)
(2.50925e-13 5.17621e-13 0)
(-7.3594e-14 4.54657e-13 0)
(1.42208e-13 5.43519e-13 0)
(9.25898e-14 4.80859e-13 0)
(-1.95439e-13 4.79825e-13 0)
(-1.68422e-13 6.25152e-13 0)
(1.00857e-13 6.72136e-13 0)
(1.36118e-13 5.63082e-13 0)
(2.82992e-15 5.47002e-13 0)
(-1.15445e-13 3.16912e-13 0)
(-3.10931e-13 2.92956e-13 0)
(-2.64653e-13 5.68262e-13 0)
(-1.31655e-13 7.18939e-13 0)
(2.55751e-13 7.81162e-13 0)
(1.11744e-13 7.24587e-13 0)
(-1.92954e-13 7.66521e-13 0)
(2.96346e-14 6.67376e-13 0)
(2.55553e-13 8.80289e-13 0)
(2.76143e-13 8.10935e-13 0)
(3.89828e-13 8.4352e-13 0)
(4.31943e-13 8.41749e-13 0)
(2.76353e-13 7.92025e-13 0)
(5.0754e-13 8.52063e-13 0)
(6.3332e-13 7.21256e-13 0)
(4.74367e-13 6.29001e-13 0)
(1.36916e-13 6.32221e-13 0)
(7.22858e-14 6.5946e-13 0)
(6.24371e-14 6.14575e-13 0)
(7.09135e-14 6.86592e-13 0)
(1.93832e-15 7.81547e-13 0)
(-3.336e-14 7.35768e-13 0)
(-9.67363e-14 7.62001e-13 0)
(-2.45992e-13 7.08214e-13 0)
(-1.67173e-13 6.24886e-13 0)
(-1.04735e-13 6.1532e-13 0)
(-6.90779e-14 6.45655e-13 0)
(-3.40483e-14 7.10175e-13 0)
(-3.95419e-14 6.94619e-13 0)
(-1.20317e-13 7.00799e-13 0)
(-8.50333e-14 5.77293e-13 0)
(-8.78268e-14 6.1688e-13 0)
(-1.73194e-13 5.3459e-13 0)
(-1.18609e-14 6.12805e-13 0)
(5.5912e-14 7.3148e-13 0)
(-2.3009e-13 8.89021e-13 0)
(-4.73975e-13 1.00599e-12 0)
(-5.86841e-13 9.07098e-13 0)
(-3.72769e-13 9.73266e-13 0)
(-1.85932e-13 8.88059e-13 0)
(-1.59506e-13 9.13813e-13 0)
(-2.23655e-13 8.74424e-13 0)
(4.47522e-15 7.90141e-13 0)
(1.24276e-13 9.09162e-13 0)
(-6.34607e-15 1.02022e-12 0)
(-7.463e-14 1.15105e-12 0)
(7.31969e-15 1.07272e-12 0)
(4.01306e-14 1.25134e-12 0)
(1.89936e-13 1.1511e-12 0)
(2.8895e-13 8.90944e-13 0)
(4.15644e-13 7.79114e-13 0)
(4.72901e-13 9.10549e-13 0)
(3.35809e-13 1.04936e-12 0)
(2.88216e-13 9.81761e-13 0)
(4.00089e-13 8.74802e-13 0)
(3.87502e-13 7.93214e-13 0)
(3.32563e-13 8.64618e-13 0)
(1.8128e-13 7.51643e-13 0)
(2.52272e-13 7.08996e-13 0)
(3.57787e-13 7.15065e-13 0)
(2.59537e-13 8.54595e-13 0)
(1.44475e-13 7.62579e-13 0)
(2.99903e-13 8.21257e-13 0)
(3.20591e-13 7.38496e-13 0)
(2.74074e-13 5.9104e-13 0)
(3.66031e-13 6.29131e-13 0)
(4.03872e-13 5.86932e-13 0)
(3.13464e-13 7.26211e-13 0)
(2.27989e-13 9.59998e-13 0)
(-6.30709e-14 9.90681e-13 0)
(-1.91404e-13 1.07422e-12 0)
(-1.78365e-13 8.80166e-13 0)
(-3.52351e-13 9.14879e-13 0)
(-3.37273e-13 8.19199e-13 0)
(-1.6068e-13 8.25585e-13 0)
(-8.53723e-14 7.31479e-13 0)
(5.03155e-14 8.89627e-13 0)
(-2.52064e-14 8.80926e-13 0)
(-2.43854e-13 7.94562e-13 0)
(-2.65219e-13 8.64596e-13 0)
(-1.23449e-13 6.89341e-13 0)
(2.70719e-14 6.51071e-13 0)
(1.9407e-13 5.83078e-13 0)
(3.01124e-13 6.36805e-13 0)
(3.45807e-13 9.02752e-13 0)
(1.85445e-13 1.02395e-12 0)
(-8.57845e-14 1.09893e-12 0)
(5.7076e-14 8.85747e-13 0)
(1.19016e-13 8.25694e-13 0)
(-6.26242e-14 6.89219e-13 0)
(-1.51992e-14 6.38671e-13 0)
(5.84699e-14 5.16304e-13 0)
(2.49847e-13 4.63424e-13 0)
(2.65583e-13 6.52713e-13 0)
(9.62706e-14 8.21546e-13 0)
(2.78151e-14 6.42785e-13 0)
(-1.16067e-13 4.7455e-13 0)
(-2.48598e-13 6.62478e-13 0)
(-2.43457e-13 6.92228e-13 0)
(-1.9109e-13 5.81999e-13 0)
(-2.57664e-14 6.1243e-13 0)
(1.81e-13 7.74073e-13 0)
(6.26056e-14 7.48813e-13 0)
(-1.87482e-14 6.94221e-13 0)
(-2.05722e-13 8.14205e-13 0)
(-1.68303e-13 5.99613e-13 0)
(8.73435e-14 6.02394e-13 0)
(1.65043e-13 4.61755e-13 0)
(3.48615e-13 5.07916e-13 0)
(3.75744e-13 7.19288e-13 0)
(1.84494e-13 6.91498e-13 0)
(-1.49047e-14 7.25155e-13 0)
(2.35185e-13 6.06196e-13 0)
(7.78232e-14 6.74075e-13 0)
(-1.74162e-13 5.1241e-13 0)
(-6.91079e-15 5.67705e-13 0)
(-1.8949e-13 5.63417e-13 0)
(-4.47549e-13 5.64244e-13 0)
(-4.96975e-13 6.69114e-13 0)
(-5.83997e-13 7.66268e-13 0)
(-5.05524e-13 8.37936e-13 0)
(-4.08689e-13 7.3594e-13 0)
(-3.5134e-13 9.16426e-13 0)
(-1.16933e-13 9.54028e-13 0)
(-1.4344e-13 1.02097e-12 0)
(8.45119e-14 9.43599e-13 0)
(3.09953e-13 8.26496e-13 0)
(1.95935e-13 6.31506e-13 0)
(1.54139e-13 7.41205e-13 0)
(6.25566e-14 8.41858e-13 0)
(6.21879e-14 7.44843e-13 0)
(2.82392e-14 7.81182e-13 0)
(-7.98422e-14 8.25236e-13 0)
(-6.55625e-15 9.36691e-13 0)
(1.85609e-13 9.94252e-13 0)
(2.34617e-13 9.15457e-13 0)
(-2.33348e-15 9.09734e-13 0)
(-6.58696e-14 8.75374e-13 0)
(-7.93989e-14 9.02052e-13 0)
(-1.29858e-13 6.17765e-13 0)
(-4.73965e-14 5.51974e-13 0)
(-2.62601e-14 5.28516e-13 0)
(4.94191e-14 7.16809e-13 0)
(-5.69207e-14 1.00475e-12 0)
(-3.64394e-13 1.07711e-12 0)
(-4.30894e-13 1.06684e-12 0)
(-1.3742e-13 9.05744e-13 0)
(1.4528e-14 9.22655e-13 0)
(-1.40241e-14 8.36702e-13 0)
(9.42101e-14 7.99848e-13 0)
(2.58886e-13 6.6707e-13 0)
(2.37387e-13 9.11567e-13 0)
(1.36373e-13 1.0179e-12 0)
(1.16239e-13 9.80407e-13 0)
(-6.55922e-14 1.17449e-12 0)
(-1.78009e-13 8.84367e-13 0)
(7.13295e-14 8.39191e-13 0)
(1.19654e-13 6.2802e-13 0)
(5.63172e-14 7.56353e-13 0)
(9.20156e-14 8.41744e-13 0)
(1.35334e-14 6.33229e-13 0)
(-1.06237e-13 7.01836e-13 0)
(-3.68294e-14 7.62195e-13 0)
(2.90708e-14 7.93999e-13 0)
(-3.0234e-14 6.57265e-13 0)
(-1.51979e-13 5.8491e-13 0)
(-2.2511e-13 4.94729e-13 0)
(-1.39449e-13 4.07933e-13 0)
(1.10543e-14 4.85834e-13 0)
(3.38873e-14 6.9269e-13 0)
(1.79849e-13 9.62821e-13 0)
(1.36028e-13 6.91857e-13 0)
(-4.86099e-14 8.83705e-13 0)
(4.53382e-14 1.01291e-12 0)
(1.77555e-13 9.35694e-13 0)
(3.10552e-13 8.16506e-13 0)
(5.15139e-13 9.71633e-13 0)
(4.09792e-13 9.5705e-13 0)
(4.30631e-13 1.11154e-12 0)
(5.50957e-13 1.17399e-12 0)
(5.15711e-13 9.70588e-13 0)
(3.49123e-13 7.3844e-13 0)
(2.10077e-13 5.33006e-13 0)
(1.57763e-14 6.13629e-13 0)
(7.92152e-14 7.34289e-13 0)
(1.87341e-13 9.20478e-13 0)
(1.12041e-13 8.60352e-13 0)
(-1.13756e-13 9.26751e-13 0)
(-2.22325e-13 7.95301e-13 0)
(-2.20784e-13 7.84397e-13 0)
(-1.60724e-13 9.03404e-13 0)
(-1.16583e-13 8.56893e-13 0)
(-2.18187e-14 9.45093e-13 0)
(-5.68533e-14 9.96119e-13 0)
(-1.12401e-13 9.26802e-13 0)
(-1.16436e-13 7.30035e-13 0)
(-5.44526e-14 6.34886e-13 0)
(-1.09846e-13 6.7398e-13 0)
(-2.02676e-13 6.29504e-13 0)
(-5.38827e-14 7.37722e-13 0)
(3.4644e-14 7.82478e-13 0)
(-1.3168e-13 8.34847e-13 0)
(-3.63251e-13 8.3111e-13 0)
(-3.34394e-13 9.45235e-13 0)
(-3.23141e-13 1.21415e-12 0)
(-4.15756e-13 1.12115e-12 0)
(-1.75977e-13 1.1732e-12 0)
(-7.90471e-14 1.25379e-12 0)
(7.47707e-14 1.22625e-12 0)
(1.93478e-13 1.30208e-12 0)
(1.65487e-13 1.26961e-12 0)
(-1.61983e-14 1.29863e-12 0)
(-6.28057e-14 1.25079e-12 0)
(7.59903e-14 1.32006e-12 0)
(1.86307e-14 1.37043e-12 0)
(1.3678e-13 1.33625e-12 0)
(3.26258e-13 1.25366e-12 0)
(4.65951e-13 1.14355e-12 0)
(3.87141e-13 1.04684e-12 0)
(3.20882e-13 1.07573e-12 0)
(3.90239e-13 1.00768e-12 0)
(3.63317e-13 1.03768e-12 0)
(2.9478e-13 9.92979e-13 0)
(1.45165e-13 9.8024e-13 0)
(1.96578e-13 1.0744e-12 0)
(4.66318e-13 1.09195e-12 0)
(2.51897e-13 1.15834e-12 0)
(4.381e-14 1.06625e-12 0)
(2.36325e-13 9.8115e-13 0)
(2.5207e-13 8.27189e-13 0)
(2.21423e-13 6.9867e-13 0)
(3.02611e-13 5.79518e-13 0)
(4.47518e-13 6.47029e-13 0)
(3.98951e-13 6.1896e-13 0)
(2.55673e-13 6.86978e-13 0)
(-2.11548e-14 6.30125e-13 0)
(-2.12158e-13 7.87347e-13 0)
(-2.37824e-13 7.01578e-13 0)
(-2.83378e-13 8.90096e-13 0)
(-3.57817e-13 1.07962e-12 0)
(-2.69683e-13 9.84219e-13 0)
(-1.29918e-13 8.29933e-13 0)
(4.72103e-15 8.20796e-13 0)
(-4.34286e-14 7.32882e-13 0)
(-3.09683e-14 7.976e-13 0)
(-1.26145e-13 1.09854e-12 0)
(-2.4104e-13 1.05576e-12 0)
(2.42291e-14 1.03198e-12 0)
(2.39145e-13 1.08897e-12 0)
(5.22604e-13 1.03414e-12 0)
(4.94886e-13 1.13863e-12 0)
(1.90503e-13 1.08387e-12 0)
(-2.32842e-13 1.05095e-12 0)
(-1.31237e-13 9.34159e-13 0)
(7.54771e-14 7.75562e-13 0)
(-5.12771e-14 8.50575e-13 0)
(-2.31909e-14 7.91603e-13 0)
(-5.84436e-14 6.92245e-13 0)
(1.41107e-13 6.61868e-13 0)
(3.55304e-13 5.85794e-13 0)
(1.05862e-13 6.21594e-13 0)
(-1.76274e-13 5.78665e-13 0)
(-2.05644e-13 5.22637e-13 0)
(-1.10081e-13 6.64653e-13 0)
(-1.9976e-13 7.73015e-13 0)
(-1.9747e-13 7.64235e-13 0)
(-1.25001e-15 7.73319e-13 0)
(8.93091e-14 6.76075e-13 0)
(-2.71116e-14 5.63296e-13 0)
(1.03265e-13 5.0201e-13 0)
(-1.15596e-13 6.08285e-13 0)
(-2.42269e-13 7.7311e-13 0)
(1.0521e-13 7.11182e-13 0)
(2.60887e-13 9.08931e-13 0)
(4.30412e-13 8.24151e-13 0)
(5.0784e-13 8.94583e-13 0)
(2.72423e-13 7.64119e-13 0)
(-9.83213e-14 8.50414e-13 0)
(7.05075e-14 7.88579e-13 0)
(1.43543e-14 6.34565e-13 0)
(-2.2971e-13 7.43813e-13 0)
(1.01829e-13 7.0164e-13 0)
(-1.16753e-13 7.30604e-13 0)
(-4.96708e-13 6.27498e-13 0)
(-5.43672e-13 7.14141e-13 0)
(-4.05293e-13 8.54025e-13 0)
(-4.95184e-13 9.84407e-13 0)
(-4.54482e-13 8.89617e-13 0)
(-1.80821e-13 1.04128e-12 0)
(-8.57451e-14 1.15216e-12 0)
(-2.48515e-13 1.11118e-12 0)
(1.78013e-15 1.04491e-12 0)
(6.89981e-14 7.65253e-13 0)
(1.037e-13 7.04872e-13 0)
(3.64043e-13 5.89458e-13 0)
(2.36791e-13 6.80613e-13 0)
(1.08502e-13 8.12595e-13 0)
(8.7472e-14 9.38743e-13 0)
(-8.39662e-15 1.05893e-12 0)
(4.04133e-14 1.22451e-12 0)
(1.07151e-13 1.31422e-12 0)
(9.54237e-14 1.1703e-12 0)
(-4.52724e-14 1.04111e-12 0)
(-9.5962e-14 1.00536e-12 0)
(-1.39476e-13 8.61778e-13 0)
(-2.6135e-13 7.64118e-13 0)
(-1.15302e-13 7.87352e-13 0)
(9.70149e-15 6.94746e-13 0)
(9.76003e-14 7.11303e-13 0)
(1.716e-14 8.17511e-13 0)
(-1.99437e-13 9.32878e-13 0)
(-3.9067e-13 1.08863e-12 0)
(-2.37953e-13 1.14444e-12 0)
(4.77274e-14 1.1501e-12 0)
(4.13071e-15 1.22123e-12 0)
(1.5094e-14 1.09875e-12 0)
(1.66574e-13 8.7262e-13 0)
(4.2725e-13 9.13958e-13 0)
(2.43078e-13 9.85771e-13 0)
(2.10799e-13 9.39047e-13 0)
(2.61377e-14 1.07339e-12 0)
(-2.95838e-13 1.15804e-12 0)
(1.68443e-14 1.07908e-12 0)
(2.23661e-13 9.94614e-13 0)
(1.78073e-13 1.15458e-12 0)
(-7.66807e-14 1.16235e-12 0)
(-8.31862e-14 1.15825e-12 0)
(-4.86455e-14 1.13032e-12 0)
(-1.19439e-13 1.15294e-12 0)
(-1.134e-14 1.10608e-12 0)
(-8.09301e-14 1.0668e-12 0)
(-1.45102e-13 8.77511e-13 0)
(-2.90133e-13 8.75101e-13 0)
(-2.67924e-13 8.43136e-13 0)
(1.13965e-14 7.65584e-13 0)
(2.66224e-13 8.18586e-13 0)
(2.11662e-13 9.00203e-13 0)
(6.92824e-14 8.80211e-13 0)
(1.46863e-13 1.01042e-12 0)
(9.80443e-14 1.19093e-12 0)
(1.19118e-13 1.04721e-12 0)
(3.25105e-13 1.03107e-12 0)
(4.61994e-13 7.94817e-13 0)
(4.20025e-13 1.04247e-12 0)
(5.69039e-13 1.09049e-12 0)
(3.96782e-13 1.19619e-12 0)
(2.3733e-13 1.01789e-12 0)
(1.35266e-13 7.83637e-13 0)
(1.26974e-14 6.80401e-13 0)
(1.98639e-13 6.00128e-13 0)
(3.54016e-13 7.8887e-13 0)
(2.19676e-13 9.4777e-13 0)
(3.57639e-14 8.33908e-13 0)
(-1.2832e-13 9.81932e-13 0)
(-2.50779e-13 8.50609e-13 0)
(-1.62958e-13 9.28726e-13 0)
(-8.82558e-14 9.41787e-13 0)
(-9.60847e-14 1.00327e-12 0)
(-1.75558e-14 9.70148e-13 0)
(-1.2102e-13 8.90961e-13 0)
(-2.6191e-13 9.07369e-13 0)
(-3.55001e-13 8.47678e-13 0)
(-8.29322e-14 7.93341e-13 0)
(-9.4252e-14 7.3962e-13 0)
(-1.1443e-13 8.2067e-13 0)
(1.35148e-13 9.50072e-13 0)
(1.36289e-13 8.91279e-13 0)
(-1.08057e-13 9.75777e-13 0)
(-4.20447e-13 1.0451e-12 0)
(-2.43216e-13 1.15707e-12 0)
(-2.28805e-13 1.23903e-12 0)
(-2.41726e-13 1.30729e-12 0)
(-6.10323e-14 1.22982e-12 0)
(-1.26244e-13 1.31079e-12 0)
(1.7987e-14 1.41237e-12 0)
(1.42891e-13 1.19541e-12 0)
(2.61653e-14 1.07319e-12 0)
(-7.32947e-14 1.00408e-12 0)
(-1.81913e-14 1.13261e-12 0)
(1.35364e-13 1.15408e-12 0)
(1.77988e-13 1.34234e-12 0)
(1.84032e-13 1.42533e-12 0)
(1.5018e-13 1.48497e-12 0)
(2.44804e-13 1.27989e-12 0)
(3.21337e-13 1.08121e-12 0)