/*--------------------------------*- C++ -*----------------------------------*\
  =========                 |
  \\      /  F ield         | OpenFOAM: The Open Source CFD Toolbox
   \\    /   O peration     | Website:  https://openfoam.org
    \\  /    A nd           | Version:  13
     \\/     M anipulation  |
\*---------------------------------------------------------------------------*/
FoamFile
{
    format      ascii;
    class       volVectorField;
    location    "0.0011";
    object      U;
}
// * * * * * * * * * * * * * * * * * * * * * * * * * * * * * * * * * * * * * //

dimensions      [0 1 -1 0 0 0 0];

internalField   nonuniform List<vector> 
33333
(
(-8.80615e-14 -2.17867e-13 0)
(-1.98113e-13 -2.25838e-13 0)
(-2.33053e-13 -8.71502e-14 0)
(-5.44414e-14 -8.18678e-14 0)
(8.12132e-14 -8.08888e-14 0)
(1.40083e-13 -1.56481e-13 0)
(2.95571e-14 -1.51068e-13 0)
(-6.34078e-14 -1.35791e-13 0)
(9.13334e-14 -1.25186e-13 0)
(2.12671e-13 -1.98881e-13 0)
(1.47775e-13 -2.08966e-13 0)
(4.6161e-14 -1.42788e-13 0)
(1.38559e-14 -9.87398e-14 0)
(1.02962e-13 -1.74594e-13 0)
(2.57244e-14 -1.4072e-13 0)
(-1.20182e-14 -5.09114e-14 0)
(1.52692e-13 -1.10683e-13 0)
(1.44696e-13 -1.30869e-13 0)
(3.58347e-14 -1.14293e-13 0)
(-6.10096e-14 -1.06407e-13 0)
(-1.37705e-13 -1.00396e-13 0)
(-3.9181e-14 -8.72882e-14 0)
(1.05184e-13 -2.23953e-13 0)
(-1.33343e-15 -1.84512e-13 0)
(-7.82332e-15 -5.95883e-14 0)
(6.48689e-14 -1.05237e-13 0)
(-2.04386e-14 -1.68118e-13 0)
(-1.62424e-13 -1.67667e-13 0)
(-7.60042e-14 -1.92957e-13 0)
(-5.17005e-16 -1.47035e-13 0)
(1.50464e-14 -1.94e-13 0)
(-7.06194e-14 -1.22634e-13 0)
(-2.27171e-14 -3.83124e-14 0)
(1.39968e-13 -6.59787e-14 0)
(1.89129e-13 -1.52786e-13 0)
(1.13828e-13 -1.61797e-13 0)
(5.66742e-14 -2.14514e-13 0)
(6.07838e-14 -2.12279e-13 0)
(1.38267e-13 -1.95705e-13 0)
(7.53165e-14 -1.1242e-13 0)
(3.56714e-14 -8.70783e-14 0)
(7.67287e-14 -1.2836e-13 0)
(2.18347e-15 -1.85617e-13 0)
(-9.52933e-14 -2.13439e-13 0)
(-1.90138e-13 -1.89157e-13 0)
(-2.62399e-13 -1.18625e-13 0)
(-1.17254e-13 -1.16887e-13 0)
(2.79054e-14 -1.41663e-13 0)
(5.31863e-14 -3.49525e-14 0)
(7.86504e-14 -1.06535e-13 0)
(-7.79646e-14 -1.46412e-13 0)
(-4.61637e-14 -1.77403e-13 0)
(-1.1606e-13 -1.96119e-13 0)
(-1.79239e-13 -1.86296e-13 0)
(-1.57122e-13 -8.66714e-14 0)
(-8.49315e-14 -1.35643e-13 0)
(-1.50816e-13 -1.66926e-13 0)
(-2.29202e-13 -1.78797e-13 0)
(-1.91387e-13 -9.82531e-14 0)
(-3.84581e-14 -8.03304e-14 0)
(2.36266e-16 -1.15184e-13 0)
(-1.96731e-14 -1.30109e-13 0)
(5.58628e-14 -1.48943e-13 0)
(1.7172e-13 -1.30923e-13 0)
(1.16233e-13 -2.13764e-13 0)
(5.49304e-14 -2.91533e-13 0)
(8.07623e-14 -3.52871e-13 0)
(5.45354e-14 -2.88502e-13 0)
(-1.06463e-14 -2.34611e-13 0)
(-1.05993e-14 -2.32875e-13 0)
(-6.03319e-14 -2.02641e-13 0)
(3.02456e-15 -1.76253e-13 0)
(1.58251e-13 -1.6363e-13 0)
(1.0815e-13 -2.40688e-13 0)
(5.68376e-14 -2.95948e-13 0)
(5.55605e-14 -2.81019e-13 0)
(4.38593e-14 -2.49715e-13 0)
(-3.67332e-14 -2.23801e-13 0)
(-1.79044e-13 -1.78985e-13 0)
(-1.41647e-13 -1.10033e-13 0)
(7.34522e-15 -1.52949e-13 0)
(-4.98697e-14 -1.96059e-13 0)
(-1.29518e-13 -1.71143e-13 0)
(1.4613e-14 -1.1836e-13 0)
(1.11559e-13 -1.76149e-13 0)
(4.35617e-15 -1.63585e-13 0)
(6.87646e-15 -1.81234e-13 0)
(6.28516e-14 -1.21572e-13 0)
(1.83381e-13 -5.41019e-14 0)
(2.46946e-13 -1.03988e-13 0)
(1.78566e-13 -1.44892e-13 0)
(6.84828e-14 -1.3592e-13 0)
(2.51792e-14 -1.47581e-13 0)
(-6.22803e-14 -9.60664e-14 0)
(-1.47327e-13 -1.11979e-13 0)
(-1.46482e-13 -1.60505e-13 0)
(2.00473e-14 -1.57895e-13 0)
(5.37133e-14 -2.09324e-13 0)
(-7.56124e-14 -2.01405e-13 0)
(-1.36113e-13 -2.6754e-13 0)
(-1.59957e-13 -1.47257e-13 0)
(-2.85046e-13 -8.7844e-14 0)
(-2.49461e-13 -5.56022e-15 0)
(-1.60227e-13 -5.6261e-14 0)
(-1.06073e-13 -6.13725e-16 0)
(9.85473e-14 1.94067e-17 0)
(7.63747e-14 -2.21471e-14 0)
(4.30401e-14 8.46348e-15 0)
(1.85e-13 -7.71884e-15 0)
(2.34692e-13 -1.14329e-13 0)
(1.40335e-13 -1.31257e-13 0)
(-2.64219e-14 -1.12512e-13 0)
(-5.78574e-14 -9.51119e-14 0)
(1.09807e-13 -5.68455e-14 0)
(9.53597e-14 -1.09879e-13 0)
(-2.16238e-14 -1.0547e-13 0)
(8.25872e-14 -5.95712e-14 0)
(1.02657e-13 -1.31007e-13 0)
(-7.85086e-14 -1.07417e-13 0)
(-4.62821e-14 -4.94971e-14 0)
(9.45599e-14 -8.15132e-14 0)
(1.06278e-13 -1.60842e-13 0)
(6.61494e-14 -1.87939e-13 0)
(9.06638e-14 -2.05634e-13 0)
(2.65696e-15 -2.02333e-13 0)
(-1.16203e-13 -1.37814e-13 0)
(-1.60994e-13 -8.93872e-14 0)
(-4.75725e-14 -3.35276e-14 0)
(-5.61421e-15 -1.71969e-13 0)
(-4.08824e-14 -2.06162e-13 0)
(-1.96699e-16 -2.54885e-13 0)
(-3.45079e-14 -1.81784e-13 0)
(-5.75179e-14 -1.43256e-13 0)
(-1.22247e-14 -8.21954e-14 0)
(9.09122e-14 -1.49377e-13 0)
(4.2508e-14 -1.97684e-13 0)
(-1.74004e-14 -1.72494e-13 0)
(9.88693e-14 -8.69426e-14 0)
(3.0189e-13 -2.0378e-13 0)
(3.01941e-13 -1.78316e-13 0)
(2.37453e-13 -1.4294e-13 0)
(1.58358e-13 -1.19847e-13 0)
(5.10469e-14 -1.65429e-13 0)
(-7.97835e-14 -1.4943e-13 0)
(-1.44278e-13 -1.53647e-13 0)
(-2.25657e-13 -1.40402e-13 0)
(4.08825e-14 -1.21924e-13 0)
(2.91275e-13 -1.91059e-13 0)
(3.15643e-13 -1.99259e-13 0)
(2.48911e-13 -2.36071e-13 0)
(2.59078e-13 -2.19563e-13 0)
(4.0904e-13 -1.52959e-13 0)
(5.82255e-13 -1.93727e-13 0)
(8.18731e-13 -2.24543e-13 0)
(1.01525e-12 -1.00437e-13 0)
(1.09888e-12 -1.5654e-13 0)
(1.0892e-12 -2.18628e-13 0)
(1.19772e-12 -1.43789e-13 0)
(1.10619e-12 -1.61632e-14 0)
(1.10773e-12 1.03789e-13 0)
(1.28132e-12 1.39863e-13 0)
(1.57481e-12 1.26546e-15 0)
(1.86572e-12 -3.3301e-14 0)
(1.94066e-12 -1.59445e-13 0)
(1.97988e-12 -1.46711e-13 0)
(2.1693e-12 -2.41613e-13 0)
(2.38116e-12 -4.0391e-13 0)
(-6.79078e-14 -3.48755e-13 0)
(-1.09637e-13 -3.66447e-13 0)
(-1.03288e-13 -1.85191e-13 0)
(-1.49384e-14 6.5038e-15 0)
(1.80277e-14 -4.20643e-14 0)
(8.55384e-14 -8.03559e-14 0)
(4.3738e-14 -1.31788e-13 0)
(-2.35507e-14 -2.26102e-13 0)
(8.87221e-14 -1.89287e-13 0)
(1.7266e-13 -2.45756e-13 0)
(1.58557e-13 -2.19742e-13 0)
(8.87033e-14 -2.91705e-13 0)
(-3.74484e-14 -2.41727e-13 0)
(5.77546e-14 -2.80279e-13 0)
(1.29845e-13 -1.99337e-13 0)
(3.86935e-14 -1.64483e-13 0)
(1.10281e-13 -1.22674e-13 0)
(9.8094e-14 -1.86012e-13 0)
(3.65869e-14 -2.75141e-13 0)
(-7.86469e-15 -2.80274e-13 0)
(-9.88788e-14 -2.66652e-13 0)
(-1.24722e-13 -1.70592e-13 0)
(-1.83575e-14 -2.51414e-13 0)
(5.344e-14 -1.86992e-13 0)
(5.35483e-15 -1.04741e-13 0)
(-6.67848e-15 -2.32507e-13 0)
(1.46613e-14 -3.02747e-13 0)
(-8.75547e-14 -2.80752e-13 0)
(-3.8379e-14 -1.61263e-13 0)
(-8.3185e-16 -2.05794e-13 0)
(1.97467e-15 -1.91122e-13 0)
(-1.26641e-14 -1.37017e-13 0)
(-2.53303e-14 -1.85346e-13 0)
(1.01954e-13 -2.8804e-13 0)
(1.74706e-13 -3.67988e-13 0)
(1.40188e-13 -2.69624e-13 0)
(6.51326e-14 -2.76148e-13 0)
(5.07495e-14 -2.37742e-13 0)
(1.36951e-13 -2.5285e-13 0)
(9.51031e-14 -2.86783e-13 0)
(3.59372e-14 -3.36715e-13 0)
(6.30646e-14 -3.07812e-13 0)
(-4.00828e-14 -2.89323e-13 0)
(-1.15098e-13 -3.84276e-13 0)
(-1.21037e-13 -3.09586e-13 0)
(-2.26068e-13 -2.08643e-13 0)
(-1.96195e-13 -9.84592e-14 0)
(5.80771e-14 -1.96711e-13 0)
(1.43945e-13 -1.11995e-13 0)
(4.94398e-14 -1.79062e-13 0)
(-3.41629e-14 -2.98777e-13 0)
(-1.14754e-13 -3.01021e-13 0)
(-1.63236e-13 -2.79683e-13 0)
(-1.18486e-13 -2.14819e-13 0)
(-1.22921e-13 -6.99889e-14 0)
(-1.33949e-13 -1.10347e-13 0)
(-1.94272e-13 -1.1188e-13 0)
(-2.36547e-13 -2.35514e-13 0)
(-1.51691e-13 -2.3114e-13 0)
(-4.23347e-14 -2.81975e-13 0)
(-2.16685e-14 -2.31045e-13 0)
(-8.51418e-14 -2.77234e-13 0)
(1.91226e-14 -2.85702e-13 0)
(1.67874e-13 -3.31205e-13 0)
(5.94704e-14 -2.93899e-13 0)
(5.97271e-15 -3.49934e-13 0)
(8.20416e-14 -3.52618e-13 0)
(1.03578e-13 -3.18017e-13 0)
(6.99189e-14 -4.25378e-13 0)
(3.97477e-14 -3.86671e-13 0)
(4.58009e-14 -3.22452e-13 0)
(7.13191e-14 -2.12785e-13 0)
(1.03722e-13 -2.70569e-13 0)
(7.23472e-14 -3.18572e-13 0)
(3.68685e-14 -2.69337e-13 0)
(4.84923e-14 -3.57088e-13 0)
(9.37492e-14 -3.65277e-13 0)
(5.66228e-14 -3.27332e-13 0)
(-1.00549e-13 -1.3118e-13 0)
(-1.34499e-13 -1.6114e-14 0)
(-3.71513e-14 -5.51509e-14 0)
(-4.97883e-14 -1.80916e-13 0)
(-9.93206e-14 -2.81715e-13 0)
(-7.59388e-15 -2.57436e-13 0)
(7.64926e-14 -2.61342e-13 0)
(-3.16508e-14 -2.29803e-13 0)
(-2.69345e-15 -2.33346e-13 0)
(1.12791e-13 -1.85944e-13 0)
(1.88268e-13 -2.07012e-13 0)
(2.10112e-13 -2.85357e-13 0)
(1.22248e-13 -3.86163e-13 0)
(6.85476e-14 -4.12651e-13 0)
(3.33948e-14 -3.16583e-13 0)
(-4.47926e-14 -3.18885e-13 0)
(-1.6571e-13 -3.59931e-13 0)
(-7.39304e-14 -3.16919e-13 0)
(2.07091e-14 -2.86978e-13 0)
(-4.01451e-14 -3.35477e-13 0)
(-1.21149e-13 -3.03654e-13 0)
(-1.61523e-13 -2.13983e-13 0)
(-1.71124e-13 -2.4968e-13 0)
(-2.64597e-13 -1.84063e-13 0)
(-2.46521e-13 -7.20352e-14 0)
(-1.10549e-13 2.31273e-15 0)
(-7.40957e-14 2.23317e-14 0)
(7.98421e-14 -7.9764e-15 0)
(1.52588e-13 -5.87775e-14 0)
(9.39838e-14 -8.27071e-14 0)
(1.2612e-13 -1.4947e-13 0)
(1.98432e-13 -2.03807e-13 0)
(1.066e-13 -1.30214e-13 0)
(-3.18908e-14 -1.79181e-13 0)
(-1.07273e-14 -1.13944e-13 0)
(9.8455e-14 -1.46203e-13 0)
(1.03116e-13 -2.17191e-13 0)
(6.16009e-14 -2.34038e-13 0)
(8.93982e-14 -1.85032e-13 0)
(4.94624e-14 -2.47844e-13 0)
(-2.88565e-14 -2.77479e-13 0)
(-2.22594e-14 -2.34361e-13 0)
(4.27193e-14 -2.31983e-13 0)
(7.07688e-14 -2.17146e-13 0)
(3.70677e-14 -2.4876e-13 0)
(8.63429e-14 -2.11873e-13 0)
(2.17859e-14 -2.10279e-13 0)
(-9.75166e-14 -2.82155e-13 0)
(-1.0696e-13 -2.31126e-13 0)
(-1.07316e-13 -1.63106e-13 0)
(-6.99735e-14 -1.09385e-13 0)
(-4.74062e-14 -1.61659e-13 0)
(6.34703e-15 -2.11248e-13 0)
(4.98016e-15 -2.12414e-13 0)
(-5.88315e-14 -3.33132e-13 0)
(-2.58904e-14 -2.67904e-13 0)
(3.03646e-14 -2.99117e-13 0)
(8.4444e-15 -2.47226e-13 0)
(9.8541e-14 -2.90164e-13 0)
(9.00417e-14 -2.41021e-13 0)
(2.0442e-13 -3.30634e-13 0)
(3.39573e-13 -4.12663e-13 0)
(2.62305e-13 -4.26097e-13 0)
(1.39743e-13 -4.31028e-13 0)
(1.46811e-14 -3.6775e-13 0)
(-6.00049e-14 -4.52493e-13 0)
(-9.01582e-14 -4.04959e-13 0)
(-1.70709e-13 -3.31699e-13 0)
(1.23031e-14 -2.29591e-13 0)
(2.37629e-13 -3.2984e-13 0)
(3.37385e-13 -3.57829e-13 0)
(3.19823e-13 -2.33204e-13 0)
(3.96529e-13 -1.98615e-13 0)
(4.62807e-13 -2.21878e-13 0)
(6.18821e-13 -2.29507e-13 0)
(9.3026e-13 -1.34749e-13 0)
(1.14213e-12 -2.00417e-13 0)
(1.11798e-12 -1.4314e-13 0)
(1.16936e-12 -1.88316e-13 0)
(1.30469e-12 -2.65687e-13 0)
(1.29259e-12 -2.47997e-13 0)
(1.29953e-12 -2.17337e-13 0)
(1.35953e-12 -1.51985e-13 0)
(1.5443e-12 -1.85332e-13 0)
(1.79165e-12 -1.88477e-13 0)
(1.86573e-12 -3.66165e-13 0)
(2.04392e-12 -4.63527e-13 0)
(2.10482e-12 -5.43573e-13 0)
(2.22688e-12 -7.1262e-13 0)
(-1.30248e-13 -3.45535e-13 0)
(-3.10583e-14 -3.48062e-13 0)
(1.00353e-13 -2.77381e-13 0)
(3.48409e-14 -1.36913e-13 0)
(-1.53623e-14 -1.55825e-13 0)
(8.22757e-14 -4.53662e-14 0)
(-6.59289e-14 -1.40707e-13 0)
(-1.20384e-13 -2.45169e-13 0)
(4.52708e-14 -2.685e-13 0)
(2.02826e-13 -3.56649e-13 0)
(1.26619e-13 -3.32847e-13 0)
(5.55673e-15 -4.37434e-13 0)
(5.47162e-14 -3.463e-13 0)
(1.52e-13 -2.02177e-13 0)
(1.1246e-13 -2.54854e-13 0)
(7.66841e-14 -3.19105e-13 0)
(1.29417e-13 -2.50668e-13 0)
(1.69866e-15 -2.40109e-13 0)
(-6.35094e-14 -2.97251e-13 0)
(-4.61821e-14 -3.58167e-13 0)
(-4.13108e-15 -3.20749e-13 0)
(-3.49073e-14 -2.45305e-13 0)
(1.74186e-14 -1.45135e-13 0)
(9.53106e-14 -1.54522e-13 0)
(-7.91399e-14 -1.60542e-13 0)
(-1.29713e-13 -2.84681e-13 0)
(-1.63395e-14 -3.26634e-13 0)
(3.89937e-14 -3.70213e-13 0)
(-9.10255e-15 -1.81915e-13 0)
(-2.27571e-14 -2.52409e-13 0)
(4.31041e-14 -2.36434e-13 0)
(-6.93639e-14 -3.0221e-13 0)
(-1.02034e-13 -3.79078e-13 0)
(-6.80826e-15 -4.17398e-13 0)
(2.18882e-13 -4.25807e-13 0)
(1.87844e-13 -3.81668e-13 0)
(7.95506e-14 -3.47193e-13 0)
(1.17873e-13 -2.72682e-13 0)
(9.71861e-14 -2.99861e-13 0)
(-2.37501e-14 -4.34598e-13 0)
(2.7187e-14 -4.34438e-13 0)
(1.36267e-13 -4.54144e-13 0)
(-7.05133e-14 -3.79936e-13 0)
(-1.57007e-13 -4.405e-13 0)
(-4.3826e-14 -4.09237e-13 0)
(-8.63705e-14 -2.83945e-13 0)
(-1.46795e-13 -1.4719e-13 0)
(1.97264e-15 -1.74212e-13 0)
(9.27583e-14 -2.43353e-13 0)
(-6.29976e-14 -2.5332e-13 0)
(-1.13174e-13 -3.22046e-13 0)
(-5.17369e-14 -3.3996e-13 0)
(6.4737e-15 -2.58214e-13 0)
(-3.24747e-14 -9.50083e-14 0)
(-1.27488e-13 -1.28736e-13 0)
(-9.96987e-14 -1.57628e-13 0)
(-2.64228e-13 -1.60895e-13 0)
(-3.5657e-13 -2.45229e-13 0)
(-1.91745e-13 -3.00123e-13 0)
(-3.07339e-14 -2.63876e-13 0)
(-3.73419e-14 -2.3432e-13 0)
(-1.3317e-13 -2.65659e-13 0)
(-2.97607e-14 -2.76362e-13 0)
(1.37403e-13 -3.46039e-13 0)
(9.00635e-14 -3.97669e-13 0)
(3.35388e-14 -3.57557e-13 0)
(1.63165e-13 -3.73369e-13 0)
(4.39437e-14 -3.2949e-13 0)
(-1.77946e-14 -3.99895e-13 0)
(4.17344e-14 -3.62008e-13 0)
(7.27972e-14 -3.76872e-13 0)
(1.11118e-13 -3.44524e-13 0)
(1.03435e-13 -3.69866e-13 0)
(1.79874e-13 -3.61527e-13 0)
(9.10852e-14 -2.66144e-13 0)
(-6.17458e-15 -2.69101e-13 0)
(7.64748e-14 -2.81702e-13 0)
(1.39887e-13 -2.46676e-13 0)
(6.22359e-14 -1.6093e-13 0)
(-1.14158e-13 -1.37312e-13 0)
(-9.53806e-14 -1.32579e-13 0)
(-2.11201e-13 -2.30269e-13 0)
(-2.12456e-13 -3.76133e-13 0)
(-3.39633e-14 -4.02767e-13 0)
(1.24168e-13 -4.027e-13 0)
(1.71559e-14 -3.76127e-13 0)
(2.64078e-14 -2.93065e-13 0)
(9.36957e-14 -2.70543e-13 0)
(1.25505e-13 -2.53808e-13 0)
(1.15724e-13 -3.9848e-13 0)
(7.5602e-14 -4.9558e-13 0)
(1.47236e-13 -5.18436e-13 0)
(6.53085e-14 -4.83876e-13 0)
(-9.45338e-14 -4.98538e-13 0)
(-9.99287e-14 -4.5737e-13 0)
(-5.90696e-14 -3.88775e-13 0)
(-1.57739e-14 -3.66965e-13 0)
(2.8887e-14 -3.49426e-13 0)
(3.02695e-14 -3.4424e-13 0)
(-1.73729e-13 -2.10247e-13 0)
(-2.57247e-13 -2.64486e-13 0)
(-1.6305e-13 -2.47395e-13 0)
(-4.73186e-14 -6.03241e-14 0)
(-7.96079e-14 5.32503e-14 0)
(-1.21706e-13 -6.12182e-15 0)
(7.10923e-14 -2.53895e-15 0)
(7.93287e-14 -9.4611e-14 0)
(-4.47658e-14 -1.7523e-13 0)
(6.47646e-14 -2.383e-13 0)
(2.26723e-13 -2.35276e-13 0)
(1.26563e-13 -1.94299e-13 0)
(-2.30555e-14 -2.09527e-13 0)
(4.1272e-14 -1.75057e-13 0)
(8.15059e-14 -1.31082e-13 0)
(3.82717e-14 -2.51195e-13 0)
(5.79352e-14 -2.99243e-13 0)
(1.40078e-13 -3.42757e-13 0)
(2.66428e-15 -3.38905e-13 0)
(-5.72089e-14 -3.22561e-13 0)
(3.05426e-14 -2.42483e-13 0)
(8.95455e-14 -2.0321e-13 0)
(6.15776e-14 -2.48452e-13 0)
(6.97425e-14 -2.41193e-13 0)
(1.13851e-13 -2.8699e-13 0)
(-8.2767e-14 -2.83479e-13 0)
(-1.77881e-13 -3.33625e-13 0)
(-9.59797e-14 -3.56748e-13 0)
(2.36983e-14 -2.56664e-13 0)
(2.21751e-16 -1.44914e-13 0)
(-9.49918e-14 -1.85726e-13 0)
(2.01064e-16 -1.67801e-13 0)
(-1.30527e-13 -2.4908e-13 0)
(-1.85271e-13 -3.45051e-13 0)
(-3.24185e-14 -3.52491e-13 0)
(1.2615e-13 -3.68919e-13 0)
(5.2325e-14 -2.5304e-13 0)
(8.82186e-15 -3.31665e-13 0)
(8.94837e-14 -3.33617e-13 0)
(1.35052e-13 -2.64349e-13 0)
(2.24295e-13 -4.07032e-13 0)
(2.38619e-13 -5.32869e-13 0)
(2.17948e-13 -5.03163e-13 0)
(-1.8833e-14 -4.39227e-13 0)
(-1.3656e-13 -4.7556e-13 0)
(-6.41354e-14 -4.43072e-13 0)
(-4.24877e-14 -3.95067e-13 0)
(8.24727e-14 -2.72565e-13 0)
(2.05287e-13 -2.93018e-13 0)
(4.25734e-13 -3.39903e-13 0)
(3.71026e-13 -2.7943e-13 0)
(3.34757e-13 -2.66237e-13 0)
(4.41474e-13 -2.83902e-13 0)
(6.69826e-13 -1.73763e-13 0)
(9.43072e-13 -1.63073e-13 0)
(1.15736e-12 -2.61741e-13 0)
(1.15998e-12 -2.06926e-13 0)
(1.05859e-12 -1.75328e-13 0)
(1.20742e-12 -3.1933e-13 0)
(1.30515e-12 -3.59463e-13 0)
(1.32855e-12 -3.31346e-13 0)
(1.43569e-12 -2.18293e-13 0)
(1.54555e-12 -2.07311e-13 0)
(1.69733e-12 -2.80541e-13 0)
(1.69204e-12 -3.23164e-13 0)
(1.9094e-12 -5.14463e-13 0)
(1.97038e-12 -7.35878e-13 0)
(1.98773e-12 -8.07737e-13 0)
(-7.33572e-14 -9.02446e-14 0)
(-9.25694e-15 -1.0982e-13 0)
(9.71267e-14 -9.47598e-14 0)
(5.44263e-14 -1.34385e-13 0)
(4.81889e-14 -9.75297e-14 0)
(9.5062e-14 -1.20723e-13 0)
(-1.33513e-13 -1.47075e-13 0)
(-1.5989e-13 -8.50152e-14 0)
(-3.85736e-15 -2.07536e-13 0)
(1.16137e-13 -2.68005e-13 0)
(7.70728e-14 -3.40515e-13 0)
(6.13635e-14 -2.17685e-13 0)
(1.69777e-13 -1.08294e-13 0)
(1.07712e-13 -8.334e-14 0)
(5.35239e-14 -1.34649e-13 0)
(6.25953e-14 -1.0434e-13 0)
(1.1144e-13 -1.96059e-13 0)
(6.75229e-14 -1.47446e-13 0)
(-4.95677e-14 -8.65338e-14 0)
(-4.27082e-14 -6.40761e-14 0)
(1.28623e-14 -1.44554e-14 0)
(-6.53079e-16 -5.52247e-14 0)
(9.41206e-15 -5.61472e-14 0)
(4.05341e-14 -1.64766e-13 0)
(-1.35806e-13 -1.44557e-13 0)
(-1.58343e-13 -5.80999e-14 0)
(-4.07657e-14 -1.12201e-13 0)
(4.2409e-14 -1.809e-13 0)
(-1.12393e-15 -2.1911e-13 0)
(-4.97814e-14 -1.30795e-13 0)
(-8.50461e-14 -2.06202e-13 0)
(-1.31598e-13 -2.7913e-13 0)
(-4.88249e-14 -2.8157e-13 0)
(5.89271e-14 -3.19221e-13 0)
(1.89614e-13 -3.03926e-13 0)
(1.82663e-13 -3.68693e-13 0)
(1.67799e-13 -2.89321e-13 0)
(1.25928e-13 -2.73265e-13 0)
(1.42366e-14 -2.93977e-13 0)
(-6.42395e-14 -2.93928e-13 0)
(-5.97539e-15 -2.45233e-13 0)
(1.27064e-13 -3.42957e-13 0)
(2.44768e-14 -3.00877e-13 0)
(-1.031e-13 -1.62414e-13 0)
(-2.38414e-14 -1.14581e-13 0)
(-6.9754e-14 -7.13422e-14 0)
(-9.43337e-14 -3.00216e-14 0)
(-2.9024e-14 1.01822e-14 0)
(5.05467e-14 -1.21121e-13 0)
(-3.2021e-14 -9.54816e-14 0)
(-1.21685e-13 -2.49953e-14 0)
(-5.85144e-14 -1.57035e-14 0)
(3.3449e-14 -1.48217e-14 0)
(-1.17003e-14 -4.20259e-14 0)
(-1.63999e-13 -8.06988e-14 0)
(-1.68575e-13 -1.70327e-13 0)
(-2.63725e-13 -2.03112e-13 0)
(-3.33194e-13 -1.10668e-13 0)
(-1.50755e-13 -1.55563e-13 0)
(6.91424e-15 -1.07196e-13 0)
(-1.76111e-14 -1.56367e-13 0)
(-1.22914e-13 -6.59595e-14 0)
(-2.21066e-14 -1.0888e-13 0)
(3.66396e-14 -1.29034e-13 0)
(2.11004e-14 -1.87455e-13 0)
(4.68693e-14 -1.25104e-13 0)
(1.40871e-13 -1.56857e-13 0)
(8.41838e-14 -2.24609e-13 0)
(-5.68208e-15 -1.86672e-13 0)
(2.53946e-14 -1.57648e-13 0)
(5.02649e-14 -1.01014e-13 0)
(1.0563e-13 -7.12781e-14 0)
(8.97009e-14 -1.07993e-13 0)
(2.06223e-13 -1.46183e-13 0)
(1.40711e-13 -1.13773e-13 0)
(4.41124e-14 -3.32238e-14 0)
(9.87463e-14 -3.2559e-14 0)
(1.30955e-13 -2.64902e-14 0)
(4.90428e-14 -1.26709e-13 0)
(-1.17122e-13 -1.90685e-13 0)
(-1.29725e-13 -2.93346e-13 0)
(-2.81578e-13 -3.43074e-13 0)
(-2.12475e-13 -2.55616e-13 0)
(-2.51938e-14 -2.25982e-13 0)
(4.97576e-14 -1.88825e-13 0)
(5.08807e-14 -2.20385e-13 0)
(6.63269e-14 -1.54431e-13 0)
(1.69737e-13 -1.41486e-13 0)
(1.17485e-13 -1.68695e-13 0)
(4.1337e-14 -2.3341e-13 0)
(4.18254e-14 -3.07988e-13 0)
(6.11316e-14 -3.49722e-13 0)
(4.38087e-14 -3.3199e-13 0)
(3.99562e-15 -2.82473e-13 0)
(-2.83442e-14 -1.69627e-13 0)
(1.17767e-14 -1.00765e-13 0)
(4.05997e-14 -7.88752e-14 0)
(-4.91597e-15 -1.18483e-13 0)
(-9.97439e-15 -2.06313e-13 0)
(-1.06718e-13 -2.35987e-13 0)
(-1.76913e-13 -8.38524e-14 0)
(-1.01606e-13 -6.86899e-15 0)
(-1.32857e-14 6.70699e-14 0)
(-1.04814e-13 4.7625e-14 0)
(-8.84799e-14 7.79754e-14 0)
(3.49221e-14 3.35888e-15 0)
(-3.69746e-15 -1.10962e-13 0)
(-5.2465e-14 -8.41616e-14 0)
(3.90694e-14 -1.01998e-13 0)
(1.87526e-13 -6.16477e-14 0)
(1.38883e-13 -1.32573e-13 0)
(6.55303e-15 -7.24615e-14 0)
(9.77631e-14 -4.10558e-14 0)
(6.76683e-14 -5.70339e-14 0)
(-1.12505e-14 -7.94342e-14 0)
(1.594e-14 -9.72524e-14 0)
(6.20802e-14 -1.54177e-13 0)
(4.48976e-14 -1.30123e-13 0)
(5.64727e-14 -8.03464e-14 0)
(8.25678e-14 -1.04196e-13 0)
(6.75723e-14 -4.54856e-14 0)
(4.10567e-14 -9.05556e-14 0)
(-3.1058e-14 -1.74869e-13 0)
(1.86267e-14 -2.56674e-13 0)
(-1.19001e-14 -2.31434e-13 0)
(-1.57383e-13 -1.29991e-13 0)
(-9.96534e-14 -1.23572e-13 0)
(2.50034e-14 -1.43758e-13 0)
(1.51833e-14 -2.08951e-13 0)
(-1.12549e-14 -8.65686e-14 0)
(-5.31902e-14 -1.02252e-13 0)
(-1.63161e-13 -1.5769e-13 0)
(-1.78159e-13 -1.18499e-13 0)
(-6.00244e-14 -1.66895e-13 0)
(1.00289e-13 -1.87066e-13 0)
(7.29404e-14 -2.69176e-13 0)
(2.32408e-14 -1.49115e-13 0)
(1.2245e-13 -1.68658e-13 0)
(9.69284e-14 -1.84059e-13 0)
(6.97275e-14 -2.57158e-13 0)
(1.70617e-13 -3.45505e-13 0)
(2.5174e-13 -4.28467e-13 0)
(7.48125e-14 -3.65998e-13 0)
(-8.47383e-14 -3.00932e-13 0)
(-7.35513e-14 -2.59582e-13 0)
(-3.40161e-14 -1.81152e-13 0)
(1.14907e-13 -1.50692e-13 0)
(1.77779e-13 -1.69797e-13 0)
(3.67289e-13 -2.35235e-13 0)
(3.7169e-13 -3.6286e-13 0)
(3.23227e-13 -3.20221e-13 0)
(4.735e-13 -2.65785e-13 0)
(6.84102e-13 -1.88943e-13 0)
(8.99407e-13 -2.15932e-13 0)
(1.15169e-12 -1.79255e-13 0)
(1.22924e-12 -2.74492e-13 0)
(1.07529e-12 -2.41297e-13 0)
(1.10682e-12 -1.56448e-13 0)
(1.21645e-12 -2.636e-13 0)
(1.41034e-12 -2.33033e-13 0)
(1.52431e-12 -2.75917e-13 0)
(1.46852e-12 -2.31546e-13 0)
(1.55431e-12 -2.99738e-13 0)
(1.61863e-12 -3.08855e-13 0)
(1.77372e-12 -3.40556e-13 0)
(1.83383e-12 -5.23748e-13 0)
(1.84768e-12 -5.63964e-13 0)
(-1.13864e-13 6.87264e-14 0)
(6.33094e-15 3.93752e-14 0)
(9.20741e-14 -1.31588e-14 0)
(4.36177e-14 -8.97769e-14 0)
(-1.14341e-15 -2.29896e-14 0)
(4.10456e-14 -1.15684e-13 0)
(-4.61348e-14 -1.5879e-13 0)
(-1.5577e-13 -9.37325e-14 0)
(-9.5433e-14 -5.46641e-14 0)
(4.0772e-14 -1.21999e-13 0)
(1.3227e-13 -2.00744e-13 0)
(2.02482e-13 -1.27587e-13 0)
(1.71973e-13 -9.34204e-14 0)
(1.17817e-13 -1.38126e-13 0)
(1.20778e-13 -7.02019e-14 0)
(1.49049e-14 8.64254e-15 0)
(5.90333e-14 1.0863e-14 0)
(1.07888e-13 -9.24609e-14 0)
(2.53891e-14 -7.74131e-14 0)
(1.66213e-14 -2.70106e-14 0)
(-4.54442e-14 2.27373e-14 0)
(-6.48804e-14 -8.81234e-14 0)
(-6.57113e-14 -8.58384e-14 0)
(-2.27861e-14 -7.3063e-14 0)
(-1.86623e-15 -1.10988e-13 0)
(-1.04488e-13 -3.00961e-14 0)
(-1.20633e-13 -1.96967e-14 0)
(-4.11546e-14 -1.91861e-14 0)
(2.2173e-14 -5.66542e-14 0)
(-5.01308e-14 -1.05698e-14 0)
(-1.40413e-13 -7.29223e-14 0)
(-1.27756e-13 -1.46187e-13 0)
(-9.53658e-14 -1.251e-13 0)
(-3.69797e-15 -9.62697e-14 0)
(1.16304e-13 -8.76262e-14 0)
(2.01187e-13 -1.61465e-13 0)
(1.73613e-13 -2.41546e-13 0)
(1.16631e-13 -3.08946e-13 0)
(7.74492e-14 -2.17211e-13 0)
(2.94336e-14 -1.19558e-13 0)
(-2.44101e-14 -7.04248e-14 0)
(5.57891e-14 -1.01903e-13 0)
(1.22952e-13 -1.77367e-13 0)
(6.00414e-14 -1.00403e-13 0)
(4.55132e-14 -3.83614e-14 0)
(-1.65781e-14 -5.00848e-15 0)
(-5.38167e-14 -3.3081e-14 0)
(-8.5293e-14 2.72521e-14 0)
(-3.71653e-14 3.45896e-14 0)
(2.6988e-14 6.62238e-15 0)
(-4.36934e-14 7.58374e-14 0)
(-3.07105e-14 1.1453e-13 0)
(-3.59153e-14 5.46465e-14 0)
(-1.03287e-13 -8.83193e-14 0)
(-1.88508e-13 -5.57126e-14 0)
(-2.01198e-13 -7.89455e-14 0)
(-2.34607e-13 -1.16234e-13 0)
(-2.80791e-13 -1.016e-14 0)
(-1.94293e-13 1.28355e-14 0)
(-4.71056e-14 -1.76708e-14 0)
(-9.78145e-15 -7.90353e-14 0)
(-7.50425e-14 -4.18713e-14 0)
(-4.26852e-14 6.23892e-14 0)
(5.03365e-14 6.78426e-14 0)
(5.4588e-14 7.66458e-14 0)
(5.36614e-14 2.76411e-14 0)
(6.90912e-14 3.23912e-14 0)
(3.12822e-14 -2.56985e-14 0)
(1.3141e-14 2.05119e-14 0)
(1.03892e-13 -1.29032e-15 0)
(1.40033e-13 6.54353e-14 0)
(8.51966e-14 6.23981e-14 0)
(1.6353e-14 4.79603e-14 0)
(1.23848e-13 2.52512e-14 0)
(2.38336e-13 -5.28786e-14 0)
(1.65426e-13 3.62264e-14 0)
(8.93795e-14 8.87974e-14 0)
(2.41012e-14 3.44143e-14 0)
(-7.14822e-14 -9.93173e-14 0)
(-1.92454e-13 -1.0205e-13 0)
(-2.16403e-13 -1.73624e-13 0)
(-2.1157e-13 -2.10762e-13 0)
(-1.26361e-13 -1.32018e-13 0)
(-9.08169e-16 -6.88983e-14 0)
(8.30485e-14 -3.05412e-14 0)
(5.36878e-14 -4.05536e-14 0)
(8.47189e-14 1.06198e-14 0)
(1.31104e-13 1.36627e-14 0)
(7.53799e-14 -1.10982e-13 0)
(-1.51766e-14 -1.19939e-13 0)
(-7.88621e-15 -1.64769e-13 0)
(5.19464e-14 -1.4522e-13 0)
(1.00774e-13 -1.32392e-13 0)
(7.45556e-14 -7.71314e-14 0)
(7.46894e-14 -1.67811e-14 0)
(2.54207e-14 7.1698e-14 0)
(-1.78308e-14 5.39081e-14 0)
(-6.4114e-14 -1.49459e-14 0)
(-5.59669e-14 1.38353e-14 0)
(8.24223e-16 1.64319e-15 0)
(-5.58234e-14 1.10038e-13 0)
(-4.24647e-14 1.78875e-13 0)
(-9.11094e-15 1.57723e-13 0)
(-1.13115e-13 9.79207e-14 0)
(-1.66809e-13 1.83788e-13 0)
(-7.6457e-14 1.12862e-13 0)
(-1.29988e-14 -3.58734e-14 0)
(-3.21822e-14 -4.82687e-14 0)
(5.03433e-14 -1.12961e-15 0)
(1.96358e-13 -1.92481e-14 0)
(1.57476e-13 -6.59595e-14 0)
(9.247e-14 -5.07078e-15 0)
(5.92204e-14 5.95335e-14 0)
(6.82098e-14 2.09991e-14 0)
(3.72981e-14 6.70411e-14 0)
(-6.8115e-15 4.88157e-14 0)
(5.47687e-14 2.73212e-14 0)
(1.02158e-13 9.86549e-15 0)
(3.18294e-15 1.74208e-14 0)
(5.08962e-14 -3.8248e-14 0)
(7.78264e-14 -1.04269e-14 0)
(-4.57441e-14 -2.25676e-14 0)
(-1.288e-13 -6.00187e-14 0)
(4.64838e-15 -5.93329e-14 0)
(6.36297e-14 -1.26368e-13 0)
(-8.06937e-14 -6.24778e-14 0)
(-1.31423e-13 -3.3639e-14 0)
(-3.17633e-14 -4.65062e-14 0)
(7.00285e-14 -9.12297e-14 0)
(2.81432e-14 1.34242e-15 0)
(-1.13308e-13 -3.75885e-14 0)
(-1.5432e-13 -3.60172e-14 0)
(-1.43987e-13 1.16388e-15 0)
(-7.48975e-14 -3.12473e-14 0)
(4.07983e-14 -3.53218e-14 0)
(1.00103e-13 -1.29701e-13 0)
(8.19405e-14 -9.19249e-14 0)
(4.01221e-14 -8.69932e-14 0)
(1.85202e-14 -1.39608e-13 0)
(6.48251e-14 -1.79946e-13 0)
(1.22297e-13 -1.78339e-13 0)
(1.86256e-13 -1.74053e-13 0)
(1.15359e-13 -2.01869e-13 0)
(-6.07758e-15 -1.44322e-13 0)
(1.20436e-14 -1.45395e-13 0)
(4.18923e-14 -1.04019e-13 0)
(8.25595e-14 -1.36894e-13 0)
(1.69816e-13 -1.25201e-13 0)
(2.25038e-13 -1.57566e-13 0)
(2.94724e-13 -2.66148e-13 0)
(3.6841e-13 -2.40719e-13 0)
(5.5943e-13 -2.51048e-13 0)
(7.85551e-13 -1.79605e-13 0)
(9.77553e-13 -8.46994e-14 0)
(1.06751e-12 -4.46875e-14 0)
(1.09683e-12 -1.66464e-13 0)
(1.1661e-12 -1.15909e-13 0)
(1.13681e-12 8.28742e-15 0)
(1.19392e-12 -2.62634e-14 0)
(1.33196e-12 -6.72407e-14 0)
(1.4307e-12 -2.20255e-13 0)
(1.4619e-12 -2.32035e-13 0)
(1.55722e-12 -3.18148e-13 0)
(1.65289e-12 -3.46876e-13 0)
(1.66361e-12 -2.94468e-13 0)
(1.61732e-12 -4.57182e-13 0)
(1.58585e-12 -5.26371e-13 0)
(-4.86927e-14 2.63034e-14 0)
(-6.33085e-14 -2.74648e-14 0)
(1.71493e-14 -1.46254e-13 0)
(1.01258e-13 -1.82001e-13 0)
(4.05386e-14 -1.79481e-13 0)
(-2.33718e-14 -2.23317e-13 0)
(-4.95688e-14 -2.50554e-13 0)
(-3.12483e-14 -1.75912e-13 0)
(-6.71772e-14 -7.42429e-14 0)
(-5.95433e-14 -9.63044e-14 0)
(6.74563e-14 -1.64947e-13 0)
(2.21349e-13 -2.07374e-13 0)
(1.72393e-13 -1.84577e-13 0)
(7.14729e-14 -2.53843e-13 0)
(1.6602e-13 -2.68148e-13 0)
(9.31127e-14 -1.72207e-13 0)
(4.24397e-15 -1.02831e-13 0)
(2.48349e-14 -2.00353e-13 0)
(2.3377e-14 -2.41325e-13 0)
(1.55223e-14 -1.79121e-13 0)
(-7.97687e-14 -1.63276e-13 0)
(-6.67099e-14 -1.58105e-13 0)
(7.80892e-15 -1.15717e-13 0)
(2.776e-15 -1.40233e-13 0)
(-6.44429e-14 -1.64831e-13 0)
(-9.94184e-14 -1.5354e-13 0)
(-6.53768e-14 -1.21353e-13 0)
(1.2568e-14 -6.49531e-14 0)
(7.15681e-14 -1.23529e-13 0)
(-8.09004e-14 -1.54118e-13 0)
(-1.65701e-13 -9.19183e-14 0)
(-1.77383e-13 -1.52202e-13 0)
(-4.20115e-14 -8.00324e-14 0)
(4.10701e-14 1.19066e-15 0)
(9.70118e-14 -2.41365e-14 0)
(1.14446e-13 -4.38728e-14 0)
(8.10555e-14 -1.42017e-13 0)
(1.33955e-13 -1.85804e-13 0)
(1.61854e-13 -2.20174e-13 0)
(6.54438e-14 -1.99192e-13 0)
(4.0889e-14 -1.46142e-13 0)
(5.69334e-14 -9.64218e-14 0)
(7.43794e-14 -1.30509e-13 0)
(4.34077e-14 -1.40163e-13 0)
(5.75121e-14 -1.40706e-13 0)
(-4.04645e-14 -1.3856e-13 0)
(-2.28083e-14 -1.30359e-13 0)
(3.85605e-14 -1.07391e-13 0)
(1.76131e-14 -4.45789e-14 0)
(1.83732e-14 -1.13673e-13 0)
(-2.53041e-14 -5.7423e-14 0)
(-1.18836e-13 -4.84731e-14 0)
(-1.00801e-13 -1.13905e-13 0)
(-9.05714e-14 -1.89112e-13 0)
(-1.65733e-13 -1.46582e-13 0)
(-2.01315e-13 -9.9701e-14 0)
(-1.83695e-13 -5.94064e-14 0)
(-2.18497e-13 -6.85345e-14 0)
(-2.10458e-13 2.9646e-14 0)
(-1.36531e-13 1.74865e-14 0)
(-4.09149e-14 -3.35274e-14 0)
(1.61466e-14 3.04612e-15 0)
(5.52632e-14 8.55083e-14 0)
(4.31042e-14 6.06419e-14 0)
(6.10652e-15 2.76168e-14 0)
(1.90904e-14 9.36233e-15 0)
(4.65199e-14 4.32958e-14 0)
(4.43552e-14 3.75533e-14 0)
(3.25348e-14 1.06063e-13 0)
(5.3562e-14 6.38116e-14 0)
(7.45594e-14 4.67243e-14 0)
(5.19987e-14 -2.75207e-14 0)
(4.9388e-14 -7.12884e-15 0)
(1.12544e-13 3.42311e-14 0)
(2.02607e-13 -1.47177e-14 0)
(1.81276e-13 -4.64336e-14 0)
(1.01326e-13 -6.13066e-14 0)
(-3.48386e-14 -9.653e-14 0)
(-1.21097e-13 -1.879e-13 0)
(-1.91042e-13 -1.38066e-13 0)
(-2.63991e-13 -1.70481e-13 0)
(-1.89026e-13 -1.09524e-13 0)
(-5.84812e-14 -6.66128e-14 0)
(1.8285e-14 4.96648e-15 0)
(5.02534e-14 -4.55387e-14 0)
(8.7397e-14 -5.11935e-14 0)
(1.20628e-13 -1.02736e-14 0)
(7.70683e-14 -3.00303e-14 0)
(2.30454e-14 -1.01843e-13 0)
(-3.28003e-14 -8.90167e-14 0)
(-9.54719e-16 -9.62876e-14 0)
(6.94309e-14 -8.36407e-14 0)
(1.17492e-13 -1.34169e-13 0)
(1.0903e-13 -1.049e-13 0)
(1.34743e-13 -6.44309e-14 0)
(7.71134e-14 -4.4899e-14 0)
(1.61736e-15 -2.90897e-14 0)
(-5.52794e-14 2.08281e-14 0)
(-1.96144e-14 7.69145e-14 0)
(1.49738e-14 5.62894e-14 0)
(-3.43581e-14 5.69407e-14 0)
(-5.71248e-14 1.08468e-13 0)
(-9.30994e-14 6.69477e-14 0)
(-1.01271e-13 3.53707e-14 0)
(-8.46231e-14 -2.41009e-17 0)
(-1.65235e-13 6.81505e-14 0)
(-1.2842e-13 -5.51983e-15 0)
(-2.68031e-14 -4.3845e-14 0)
(6.97019e-14 4.98799e-15 0)
(1.45909e-13 -6.1949e-14 0)
(1.61489e-13 -5.2534e-14 0)
(1.46607e-13 -5.42546e-14 0)
(1.35973e-13 -4.39493e-14 0)
(7.23602e-14 -4.81562e-14 0)
(2.6601e-14 -4.08355e-14 0)
(-1.02623e-14 -4.30393e-14 0)
(2.40916e-14 -2.42643e-14 0)
(3.85103e-14 -7.43804e-14 0)
(-3.62192e-14 -1.06923e-13 0)
(3.24693e-14 -8.66486e-14 0)
(7.6535e-14 -1.34266e-13 0)
(-9.93974e-15 -1.7791e-13 0)
(-7.46113e-14 -1.10363e-13 0)
(-5.8224e-14 -9.90582e-14 0)
(3.73317e-14 -1.37295e-13 0)
(-4.61466e-14 -1.17879e-13 0)
(-1.36428e-13 -8.60245e-14 0)
(-2.98256e-14 -7.89861e-14 0)
(1.0704e-13 -1.29745e-13 0)
(3.3463e-14 -1.29734e-13 0)
(-1.09945e-13 -1.01384e-13 0)
(-1.22796e-13 -7.64194e-14 0)
(-8.15638e-14 -5.66033e-14 0)
(-6.70532e-14 2.48476e-14 0)
(-5.87175e-14 -6.76877e-16 0)
(1.32215e-14 -8.34307e-14 0)
(9.04536e-14 -1.50685e-13 0)
(4.62041e-14 -1.40901e-13 0)
(6.13956e-15 -1.57522e-13 0)
(8.5819e-14 -1.85422e-13 0)
(1.5678e-13 -1.18178e-13 0)
(1.83761e-13 -8.24178e-14 0)
(1.13798e-13 -1.39385e-13 0)
(-1.56993e-14 -1.20106e-13 0)
(-3.76048e-14 -6.83941e-14 0)
(-6.57847e-15 -1.13702e-13 0)
(8.08766e-14 -1.44914e-13 0)
(2.04416e-13 -1.70001e-13 0)
(2.18843e-13 -1.3513e-13 0)
(2.4933e-13 -1.60536e-13 0)
(3.38336e-13 -9.09437e-14 0)
(5.86694e-13 -9.00378e-14 0)
(8.95013e-13 -8.29204e-14 0)
(1.00654e-12 -7.31048e-15 0)
(1.01087e-12 -9.80326e-14 0)
(1.10192e-12 -1.14552e-13 0)
(1.24478e-12 -7.41075e-14 0)
(1.16385e-12 -4.7318e-14 0)
(1.1718e-12 -2.89832e-14 0)
(1.25373e-12 -2.79033e-14 0)
(1.36958e-12 -9.42941e-14 0)
(1.42797e-12 -8.80728e-14 0)
(1.49229e-12 -1.7357e-13 0)
(1.6268e-12 -2.2286e-13 0)
(1.54044e-12 -3.43195e-13 0)
(1.40054e-12 -3.60254e-13 0)
(1.54121e-12 -3.7535e-13 0)
(3.69072e-14 -1.43131e-13 0)
(-1.02304e-13 -1.40059e-13 0)
(-3.38171e-14 -1.32533e-13 0)
(1.57175e-14 -1.71594e-13 0)
(-6.38705e-15 -1.93976e-13 0)
(-8.52985e-16 -2.2631e-13 0)