/*--------------------------------*- C++ -*----------------------------------*\
  =========                 |
  \\      /  F ield         | OpenFOAM: The Open Source CFD Toolbox
   \\    /   O peration     | Website:  https://openfoam.org
    \\  /    A nd           | Version:  13
     \\/     M anipulation  |
\*---------------------------------------------------------------------------*/
FoamFile
{
    format      ascii;
    class       volVectorField;
    location    "0.0013";
    object      U;
}
// * * * * * * * * * * * * * * * * * * * * * * * * * * * * * * * * * * * * * //

dimensions      [0 1 -1 0 0 0 0];

internalField   nonuniform List<vector> 
33333
(
(7.42351e-14 2.0423e-14 0)
(2.36432e-14 6.32711e-15 0)
(1.54221e-13 5.11634e-14 0)
(1.26602e-13 6.46937e-14 0)
(1.9997e-13 9.51262e-14 0)
(3.26448e-13 1.09207e-15 0)
(1.84426e-13 4.36713e-15 0)
(4.20765e-14 -4.97235e-14 0)
(-3.61683e-14 1.26135e-14 0)
(-1.48136e-13 8.96971e-14 0)
(-1.17409e-13 1.49973e-13 0)
(-4.03295e-14 3.74259e-14 0)
(-2.05013e-14 -2.4379e-14 0)
(2.25071e-14 4.23442e-14 0)
(5.47408e-14 1.21025e-16 0)
(-8.25727e-14 -3.6347e-14 0)
(-2.33496e-14 5.02347e-14 0)
(7.08951e-14 9.17416e-15 0)
(-9.4374e-14 3.97131e-15 0)
(-1.22115e-13 9.49252e-14 0)
(4.8099e-15 1.24983e-13 0)
(-7.80126e-14 3.41358e-14 0)
(-1.90422e-13 9.13205e-14 0)
(-1.62329e-13 4.42392e-14 0)
(-1.02723e-13 4.28051e-14 0)
(-2.04782e-15 1.36349e-13 0)
(1.26269e-13 1.62478e-13 0)
(2.30425e-13 4.99253e-14 0)
(1.61481e-13 8.92298e-14 0)
(1.38914e-13 8.91903e-14 0)
(3.21169e-13 8.49482e-14 0)
(2.55274e-13 1.34313e-13 0)
(1.60564e-13 1.08625e-13 0)
(1.85033e-13 -5.38108e-14 0)
(-4.16395e-14 -4.55541e-14 0)
(-1.43127e-13 1.62746e-14 0)
(1.63247e-14 -4.82366e-14 0)
(9.69489e-14 2.07631e-14 0)
(8.28536e-14 1.94467e-14 0)
(5.99113e-14 -9.01487e-14 0)
(-1.32824e-13 -5.36945e-14 0)
(-1.34569e-13 4.27141e-14 0)
(-1.29235e-13 4.38865e-14 0)
(-1.06794e-13 7.46305e-14 0)
(3.50424e-14 -4.55751e-14 0)
(2.46706e-13 -4.47282e-18 0)
(1.53866e-13 -5.36235e-14 0)
(7.06017e-14 -2.9239e-14 0)
(1.09101e-13 -9.87357e-14 0)
(-3.27322e-14 -7.87764e-14 0)
(-1.65504e-13 -7.06864e-14 0)
(8.36996e-15 -3.92116e-14 0)
(2.23289e-13 -7.84704e-14 0)
(1.27817e-13 -5.97716e-14 0)
(5.69344e-14 -2.84747e-14 0)
(4.27888e-14 -1.34774e-14 0)
(-1.01961e-13 -4e-14 0)
(-1.45936e-13 -9.77933e-14 0)
(-1.30391e-13 -7.11904e-14 0)
(-2.21639e-13 -7.59404e-14 0)
(-2.04029e-13 -6.17371e-14 0)
(-1.66928e-13 -1.31821e-13 0)
(-9.94481e-14 7.98706e-15 0)
(8.00745e-14 2.5383e-14 0)
(3.02644e-14 -8.9914e-14 0)
(-1.78051e-13 -6.36633e-14 0)
(-1.32744e-13 1.92743e-14 0)
(-6.88956e-14 7.12234e-14 0)
(-1.04468e-13 1.0726e-13 0)
(-4.03389e-14 8.55209e-14 0)
(1.31112e-13 6.02707e-14 0)
(7.69605e-14 -9.37109e-15 0)
(1.28155e-13 3.10622e-14 0)
(1.95256e-13 -1.97725e-14 0)
(-3.29469e-14 -2.56625e-14 0)
(-1.59754e-13 2.11993e-14 0)
(5.57423e-14 -4.98328e-15 0)
(2.00192e-13 5.08188e-15 0)
(2.27174e-14 1.39792e-14 0)
(-4.41828e-14 7.943e-14 0)
(9.97249e-14 6.97311e-14 0)
(7.68911e-14 -4.19714e-14 0)
(-7.58035e-14 -1.5595e-13 0)
(-2.11045e-13 -7.63035e-14 0)
(-3.83459e-13 1.66114e-14 0)
(-3.09951e-13 7.99894e-14 0)
(-1.29333e-13 -5.66508e-15 0)
(-4.22207e-14 1.18673e-13 0)
(1.65311e-13 4.4918e-14 0)
(1.35154e-13 -1.23069e-13 0)
(-6.42364e-14 -6.85602e-14 0)
(-1.09826e-13 4.6955e-14 0)
(-2.48045e-14 7.88172e-14 0)
(3.5524e-14 1.56598e-13 0)
(1.19927e-13 1.13874e-13 0)
(2.40176e-13 8.1006e-14 0)
(1.7144e-13 2.5417e-14 0)
(1.63053e-13 6.67658e-14 0)
(1.6481e-13 2.76714e-14 0)
(-1.05266e-14 -1.35033e-14 0)
(-1.8181e-13 -6.39828e-14 0)
(-2.39507e-13 -6.77023e-14 0)
(-1.24564e-13 -1.20414e-13 0)
(-6.53248e-14 -1.50161e-14 0)
(-9.2128e-14 6.92291e-14 0)
(9.03333e-14 3.95602e-14 0)
(1.38962e-13 -1.61478e-14 0)
(2.49702e-14 -4.63156e-14 0)
(3.00768e-14 -1.18475e-13 0)
(-1.28264e-13 -9.23589e-14 0)
(-2.14445e-13 -1.52602e-14 0)
(1.28502e-14 -8.73896e-14 0)
(8.64666e-14 -1.27256e-13 0)
(1.05223e-13 -6.61705e-14 0)
(1.50245e-13 -1.69701e-13 0)
(-2.55158e-14 -1.14503e-13 0)
(-1.46523e-15 -4.8614e-14 0)
(1.02556e-13 -1.42702e-14 0)
(1.74551e-13 -3.52827e-14 0)
(1.16783e-13 -4.86682e-14 0)
(-1.42391e-14 -4.10065e-14 0)
(-3.15828e-14 -7.83606e-14 0)
(6.18556e-14 1.17328e-14 0)
(5.58638e-14 -6.05729e-15 0)
(-5.06556e-14 3.62201e-14 0)
(3.86579e-14 1.64199e-14 0)
(1.58135e-13 -1.62448e-14 0)
(8.77364e-14 -1.3046e-13 0)
(-8.51141e-14 -1.58179e-13 0)
(3.44029e-14 -1.962e-14 0)
(1.82911e-14 3.4356e-14 0)
(-1.13384e-13 1.21886e-13 0)
(-3.74443e-14 1.06443e-13 0)
(-7.3818e-14 -2.32242e-15 0)
(-1.1774e-13 -8.63801e-15 0)
(2.55365e-14 9.481e-15 0)
(9.82819e-14 -6.19641e-14 0)
(-1.15254e-13 -5.21347e-14 0)
(-1.79277e-13 -7.36382e-14 0)
(-2.22742e-13 -1.52991e-13 0)
(-1.40088e-13 -1.64965e-13 0)
(-1.20628e-13 -1.20227e-13 0)
(-1.39006e-13 -7.17413e-14 0)
(-7.58622e-14 -2.89236e-14 0)
(-4.12129e-14 1.74654e-14 0)
(-2.34211e-14 9.84082e-15 0)
(-2.04068e-14 -9.6251e-14 0)
(-3.05697e-15 -1.44312e-13 0)
(-6.99156e-15 -6.03519e-14 0)
(-4.23105e-14 -8.09583e-15 0)
(1.34406e-14 -1.21229e-14 0)
(1.07949e-13 -2.29401e-14 0)
(2.85784e-14 -2.59894e-14 0)
(-1.21335e-13 -1.13334e-14 0)
(-5.53265e-14 3.35822e-14 0)
(2.9021e-15 3.26942e-14 0)
(-1.73944e-13 5.80887e-14 0)
(-1.31609e-13 6.20017e-14 0)
(-1.61804e-14 -4.08773e-15 0)
(6.84294e-14 1.91081e-14 0)
(1.07352e-13 -2.96807e-14 0)
(7.94108e-14 -1.02674e-13 0)
(1.35749e-13 -1.62984e-13 0)
(9.84859e-14 -1.21841e-13 0)
(-3.05406e-14 -8.7512e-14 0)
(-1.10582e-13 -1.32126e-13 0)
(-2.5432e-14 -7.37787e-14 0)
(4.68398e-14 -1.63822e-13 0)
(6.39465e-14 -1.11583e-13 0)
(1.89911e-13 -3.41795e-15 0)
(1.58022e-13 -6.13797e-14 0)
(1.39984e-13 3.4879e-14 0)
(2.02326e-13 -5.98627e-14 0)
(1.56822e-13 -9.219e-14 0)
(5.56215e-14 -1.50023e-13 0)
(6.18659e-14 -2.00721e-13 0)
(-7.13651e-14 -1.25374e-13 0)
(-1.5203e-13 -2.87352e-14 0)
(-1.31018e-13 -1.26559e-13 0)
(-3.18884e-15 -1.48436e-13 0)
(6.78803e-14 -1.30753e-13 0)
(-2.01908e-14 -2.22692e-13 0)
(1.96335e-14 -2.09228e-13 0)
(6.11274e-14 -3.37162e-14 0)
(4.52789e-14 -1.36931e-13 0)
(-3.91297e-14 -1.07429e-13 0)
(-9.05712e-14 3.34877e-14 0)
(-1.01379e-13 5.33034e-14 0)
(-1.3094e-13 -1.01952e-13 0)
(-2.05308e-13 -4.1474e-14 0)
(-1.82383e-13 1.32638e-15 0)
(-4.30591e-14 -2.84205e-14 0)
(5.63166e-14 -1.82905e-14 0)
(5.84777e-14 -1.18223e-14 0)
(1.61467e-13 -4.66883e-14 0)
(1.90592e-13 -8.09204e-14 0)
(9.9026e-14 -4.54984e-14 0)
(3.02037e-13 2.54047e-14 0)
(2.82553e-13 -2.58462e-14 0)
(8.71354e-14 -3.48007e-14 0)
(1.29519e-13 -1.37049e-13 0)
(3.13639e-14 -1.91897e-13 0)
(-1.58768e-13 -2.12158e-13 0)
(1.75926e-15 -2.26086e-13 0)
(1.56404e-13 -1.94676e-13 0)
(-5.1802e-15 -1.84841e-13 0)
(8.14778e-15 -3.03091e-13 0)
(1.55259e-14 -2.02163e-13 0)
(-7.0558e-14 -9.6786e-14 0)
(-1.09353e-13 -1.37926e-13 0)
(-1.5752e-13 -4.93758e-14 0)
(3.08279e-14 -1.05871e-13 0)
(2.27248e-13 -1.18833e-13 0)
(1.06191e-13 -2.39161e-13 0)
(3.90845e-14 -1.83652e-13 0)
(9.92904e-14 -2.07789e-13 0)
(2.8691e-14 -2.26312e-13 0)
(-1.68655e-13 -2.68039e-13 0)
(1.84107e-14 -1.91728e-13 0)
(2.09386e-13 -1.86337e-13 0)
(1.02202e-13 -2.60092e-13 0)
(5.05148e-14 -2.69801e-13 0)
(-2.38847e-14 -2.30248e-13 0)
(-1.00804e-13 -3.09128e-13 0)
(-7.21516e-14 -2.54296e-13 0)
(-9.59972e-14 -3.2605e-13 0)
(-2.05789e-13 -3.58634e-13 0)
(-2.73445e-13 -2.75551e-13 0)
(-1.15164e-13 -2.32016e-13 0)
(1.77772e-14 -1.15199e-13 0)
(-3.81695e-14 -1.69358e-13 0)
(-5.11223e-14 -2.67958e-13 0)
(-1.05403e-13 -2.25798e-13 0)
(-5.95652e-14 -1.36056e-13 0)
(-2.07427e-14 -1.36185e-13 0)
(-8.24587e-14 -2.51927e-14 0)
(-3.05043e-14 3.81951e-14 0)
(3.18804e-14 -6.05164e-14 0)
(6.04542e-14 -2.04634e-13 0)
(1.07195e-13 -1.55406e-13 0)
(1.62217e-13 -1.92033e-13 0)
(3.13689e-14 -2.08449e-13 0)
(-1.3677e-13 -1.63639e-13 0)
(4.76725e-15 -1.06461e-13 0)
(1.76386e-13 -1.27141e-13 0)
(9.16808e-14 -1.67918e-13 0)
(1.44075e-14 -1.29661e-13 0)
(6.55258e-15 -7.93717e-14 0)
(-8.85927e-14 -1.60057e-13 0)
(-7.04829e-14 -2.01896e-13 0)
(-7.84092e-14 -1.81869e-13 0)
(-2.54573e-13 -1.40447e-13 0)
(-3.30342e-13 -3.50004e-14 0)
(-1.32904e-13 -3.09746e-14 0)
(1.57656e-14 -2.7593e-14 0)
(-7.7023e-14 -1.03785e-13 0)
(5.02303e-14 -2.17731e-13 0)
(4.68967e-14 -1.58536e-13 0)
(-3.80115e-14 -1.01959e-13 0)
(5.55684e-15 -8.8853e-14 0)
(7.27106e-14 -2.24826e-14 0)
(1.38404e-13 -3.5283e-14 0)
(1.81206e-13 -8.44239e-14 0)
(1.25183e-13 -1.53939e-13 0)
(9.90325e-14 -1.55381e-13 0)
(1.18332e-13 -2.23762e-13 0)
(1.26887e-14 -2.23214e-13 0)
(-1.2318e-13 -2.49653e-13 0)
(-2.02351e-13 -2.68333e-13 0)
(-9.55304e-14 -1.41896e-13 0)
(2.0985e-14 -2.0108e-13 0)
(-5.4993e-14 -1.11725e-13 0)
(-1.61603e-14 -7.68544e-14 0)
(4.57208e-14 -1.10636e-13 0)
(-1.03859e-15 -1.6414e-13 0)
(4.49713e-14 -2.19512e-13 0)
(-3.14288e-14 -1.80099e-13 0)
(-1.62238e-13 -1.50836e-13 0)
(-1.02039e-13 -6.73616e-14 0)
(4.99193e-14 -1.57185e-13 0)
(7.15339e-14 -1.59678e-13 0)
(8.97161e-14 -2.36223e-13 0)
(1.82252e-13 -2.66254e-13 0)
(1.4728e-13 -2.30425e-13 0)
(1.50236e-13 -2.47442e-13 0)
(1.17121e-13 -2.17051e-13 0)
(6.82018e-14 -1.51153e-13 0)
(-9.32399e-14 -2.17836e-13 0)
(1.188e-14 -2.04307e-13 0)
(5.05503e-14 -1.33428e-13 0)
(5.95829e-14 -2.13599e-13 0)
(3.20651e-14 -1.53667e-13 0)
(6.07969e-14 -1.71419e-13 0)
(9.77048e-14 -1.67271e-13 0)
(-8.55787e-15 -2.11893e-13 0)
(1.04815e-14 -2.11997e-13 0)
(3.08065e-14 -1.58973e-13 0)
(-5.82189e-14 -1.48214e-13 0)
(-3.35382e-14 -1.65304e-13 0)
(-2.22584e-14 -1.24776e-13 0)
(-8.82069e-14 -2.09172e-13 0)
(-7.77244e-14 -2.07447e-13 0)
(-2.37071e-14 -2.21629e-13 0)
(7.15309e-15 -2.81173e-13 0)
(-8.12174e-14 -2.59816e-13 0)
(-2.78144e-13 -1.88929e-13 0)
(-2.78636e-13 -2.59504e-13 0)
(-7.64085e-14 -2.63251e-13 0)
(-6.25036e-14 -3.09455e-13 0)
(-1.07828e-13 -2.94026e-13 0)
(-5.50506e-14 -2.2506e-13 0)
(-1.96432e-14 -1.64247e-13 0)
(-3.63905e-15 -1.07316e-13 0)
(-1.07415e-13 -6.70851e-14 0)
(-7.65076e-14 -2.09829e-13 0)
(2.14309e-14 -2.71369e-13 0)
(-6.52405e-15 -2.06461e-13 0)
(2.67407e-14 -2.24797e-13 0)
(7.15349e-14 -2.31267e-13 0)
(4.87483e-14 -2.01929e-13 0)
(-9.122e-15 -1.64391e-13 0)
(2.32725e-14 3.0727e-14 0)
(-1.00082e-13 -7.0709e-14 0)
(-1.79276e-13 -1.44369e-13 0)
(-1.0679e-13 -1.54e-13 0)
(8.1312e-16 -1.6511e-13 0)
(7.43008e-14 -1.26379e-13 0)
(4.18491e-14 -1.42079e-13 0)
(-2.07357e-14 -1.48502e-13 0)
(7.80999e-14 -2.20113e-13 0)
(9.4222e-14 -1.8255e-13 0)
(-1.09935e-13 -2.48978e-13 0)
(-5.15979e-14 -2.78972e-13 0)
(3.03203e-14 -2.44215e-13 0)
(7.08397e-14 -1.42011e-13 0)
(1.56748e-13 -8.09751e-14 0)
(1.54558e-13 -6.52806e-14 0)
(1.68724e-13 -9.4498e-14 0)
(2.07219e-13 -1.1972e-14 0)
(1.73241e-13 4.74972e-14 0)
(1.01476e-13 -8.20903e-15 0)
(-3.67075e-14 -9.19798e-14 0)
(1.44772e-15 -1.79506e-13 0)
(2.29562e-15 -2.29425e-13 0)
(-1.58458e-13 -1.92213e-13 0)
(-5.11019e-14 -1.35107e-13 0)
(3.58479e-14 -4.22191e-14 0)
(-5.99914e-14 -1.01394e-13 0)
(-3.62159e-14 -1.8715e-13 0)
(1.25241e-13 -1.89654e-13 0)
(7.98087e-14 -1.74945e-13 0)
(4.60643e-14 -2.08958e-13 0)
(4.72698e-14 -1.84334e-13 0)
(-3.50298e-14 -1.37948e-13 0)
(-1.65977e-13 -8.78215e-14 0)
(-1.48718e-13 -1.07095e-13 0)
(-8.22093e-14 -7.9323e-14 0)
(-1.14691e-13 4.98695e-14 0)
(-1.39915e-13 5.69872e-14 0)
(-1.04334e-14 1.94469e-14 0)
(6.4729e-14 5.44014e-14 0)
(1.44606e-13 6.66201e-14 0)
(2.05066e-13 -6.42612e-14 0)
(2.15322e-13 1.66037e-14 0)
(2.66159e-13 -2.50314e-14 0)
(1.66755e-13 -1.23774e-13 0)
(8.57298e-14 -2.18092e-13 0)
(5.16807e-14 -1.94994e-13 0)
(-1.04279e-13 -2.30409e-13 0)
(-1.51149e-13 -2.85183e-13 0)
(1.35989e-14 -2.19902e-13 0)
(1.2524e-13 -3.36491e-13 0)
(-1.8672e-14 -3.58893e-13 0)
(1.65143e-14 -3.2336e-13 0)
(4.21092e-14 -3.54372e-13 0)
(-4.86702e-14 -3.15164e-13 0)
(-1.5348e-14 -1.99781e-13 0)
(-8.50894e-14 -1.13386e-13 0)
(-2.47899e-14 -1.71227e-13 0)
(1.13874e-13 -2.08619e-13 0)
(8.77475e-14 -3.15935e-13 0)
(1.25007e-13 -2.71471e-13 0)
(8.46568e-14 -2.79344e-13 0)
(-1.92827e-14 -2.78102e-13 0)
(-1.14088e-13 -2.87366e-13 0)
(2.06884e-14 -1.56587e-13 0)
(1.05919e-13 -1.78573e-13 0)
(5.34827e-14 -2.08739e-13 0)
(4.32654e-14 -2.42435e-13 0)
(-5.54079e-15 -3.24597e-13 0)
(-5.02409e-14 -2.37245e-13 0)
(-8.67435e-14 -2.62342e-13 0)
(-2.21922e-13 -3.28209e-13 0)
(-1.35718e-13 -3.46247e-13 0)
(-1.09086e-13 -3.12799e-13 0)
(-3.65987e-14 -2.47465e-13 0)
(-3.74524e-15 -2.59367e-13 0)
(-8.2399e-14 -2.83308e-13 0)
(-4.19074e-14 -2.89895e-13 0)
(-6.61274e-14 -3.21648e-13 0)
(-5.10232e-14 -2.85708e-13 0)
(1.81111e-14 -2.5937e-13 0)
(-1.29086e-14 -1.68534e-13 0)
(-3.73744e-14 -1.82755e-13 0)
(-6.84749e-14 -1.76933e-13 0)
(-2.17734e-14 -2.36477e-13 0)
(1.79831e-13 -2.07135e-13 0)
(1.51168e-13 -2.08383e-13 0)
(9.46355e-15 -2.30044e-13 0)
(-4.72772e-14 -2.36752e-13 0)
(5.50942e-14 -1.37569e-13 0)
(6.28475e-14 -2.22625e-13 0)
(6.49506e-14 -2.62829e-13 0)
(9.44776e-14 -2.86375e-13 0)
(9.14207e-14 -2.00138e-13 0)
(-4.80472e-14 -1.38971e-13 0)
(-1.10072e-13 -1.13102e-13 0)
(-1.55332e-13 -2.03928e-13 0)
(-1.98666e-13 -2.03982e-13 0)
(-2.66635e-13 -2.08086e-13 0)
(-1.39011e-13 -1.46515e-13 0)
(-8.85884e-14 -1.95541e-13 0)
(-1.08335e-13 -2.18403e-13 0)
(6.48807e-14 -1.1902e-13 0)
(4.76914e-14 -1.6333e-13 0)
(1.65405e-15 -1.9598e-13 0)
(2.05512e-14 -1.49293e-13 0)
(4.54871e-14 -1.59063e-13 0)
(7.59864e-14 -1.59872e-13 0)
(1.37856e-13 -2.54808e-13 0)
(1.50187e-13 -3.15575e-13 0)
(9.06666e-14 -2.71754e-13 0)
(7.48485e-14 -2.88143e-13 0)
(-7.29034e-14 -3.09575e-13 0)
(-1.99094e-13 -4.03551e-13 0)
(-1.04887e-13 -3.42432e-13 0)
(-6.5437e-14 -2.39317e-13 0)
(-2.20018e-14 -2.90405e-13 0)
(7.35002e-14 -2.58099e-13 0)
(8.49918e-14 -1.6374e-13 0)
(5.76029e-14 -8.02497e-14 0)
(-3.71458e-14 -1.12679e-13 0)
(-1.47324e-14 -1.85492e-13 0)
(-5.60365e-14 -2.45368e-13 0)
(-6.69375e-14 -2.25145e-13 0)
(-2.22235e-14 -1.27451e-13 0)
(1.27477e-14 -1.54958e-13 0)
(1.0081e-14 -1.45712e-13 0)
(7.27779e-14 -1.22494e-13 0)
(1.10135e-13 -1.86444e-13 0)
(7.55097e-14 -3.04454e-13 0)
(1.39843e-13 -2.89854e-13 0)
(1.978e-13 -2.60641e-13 0)
(1.11088e-13 -2.65695e-13 0)
(-7.25361e-14 -2.41238e-13 0)
(1.11455e-14 -2.55243e-13 0)
(-3.35615e-14 -3.14172e-13 0)
(6.08009e-15 -3.04354e-13 0)
(2.4622e-14 -3.27147e-13 0)
(6.91551e-14 -3.0316e-13 0)
(1.25856e-13 -3.52333e-13 0)
(4.88713e-14 -2.98609e-13 0)
(-2.23542e-14 -2.79942e-13 0)
(-8.96195e-15 -3.0628e-13 0)
(-1.10935e-13 -2.49722e-13 0)
(-1.11282e-13 -2.5297e-13 0)
(-6.43885e-14 -2.92651e-13 0)
(-1.32598e-13 -3.79633e-13 0)
(-6.39194e-14 -4.51282e-13 0)
(-1.2105e-14 -4.89174e-13 0)
(1.62832e-14 -5.19235e-13 0)
(-4.78373e-14 -4.62997e-13 0)
(-1.77136e-13 -3.56957e-13 0)
(-2.45044e-13 -2.62719e-13 0)
(-1.69805e-13 -3.34825e-13 0)
(-1.22515e-13 -4.52188e-13 0)
(-6.68232e-14 -3.9751e-13 0)
(5.08448e-15 -3.34119e-13 0)
(4.11701e-14 -3.5054e-13 0)
(3.55208e-14 -3.64559e-13 0)
(-8.89934e-14 -2.58245e-13 0)
(-1.63259e-13 -2.29553e-13 0)
(-4.5569e-14 -3.17062e-13 0)
(-2.61104e-14 -3.38285e-13 0)
(-1.37735e-14 -2.98334e-13 0)
(8.46937e-14 -3.12776e-13 0)
(4.86604e-14 -4.19325e-13 0)
(6.54737e-14 -3.05223e-13 0)
(1.04864e-13 -2.29507e-13 0)
(-1.34353e-13 -2.81053e-13 0)
(-2.50461e-13 -2.96154e-13 0)
(-1.15568e-13 -2.50986e-13 0)
(7.59709e-14 -3.24421e-13 0)
(8.69695e-14 -3.72008e-13 0)
(7.26817e-14 -4.15579e-13 0)
(2.72141e-14 -3.76488e-13 0)
(9.47423e-14 -2.81069e-13 0)
(1.41919e-14 -2.86653e-13 0)
(-1.43398e-13 -3.19459e-13 0)
(-6.36694e-14 -3.61623e-13 0)
(-3.66623e-14 -4.15381e-13 0)
(5.5779e-14 -2.22349e-13 0)
(1.74803e-13 -2.31179e-13 0)
(1.68013e-13 -1.92392e-13 0)
(1.71224e-13 -1.40052e-13 0)
(2.14503e-13 -1.49855e-13 0)
(1.83082e-13 -5.99507e-14 0)
(4.24266e-14 -1.09152e-13 0)
(-8.14911e-14 -1.47758e-13 0)
(-4.90305e-14 -2.0797e-13 0)
(1.5543e-14 -2.69111e-13 0)
(-5.89829e-14 -3.07617e-13 0)
(-3.28838e-14 -1.95068e-13 0)
(4.83017e-14 -1.302e-13 0)
(-9.28719e-14 -1.43326e-13 0)
(-4.15309e-14 -9.40562e-14 0)
(7.96863e-14 -6.60208e-14 0)
(5.57605e-14 -1.93934e-13 0)
(3.27572e-14 -2.10469e-13 0)
(3.41973e-14 -2.4694e-13 0)
(1.03512e-14 -2.28823e-13 0)
(-1.02715e-13 -1.74443e-13 0)
(-1.06552e-13 -5.85416e-14 0)
(-3.83622e-14 -7.41735e-14 0)
(-3.83071e-14 -7.56574e-14 0)
(-8.06053e-14 -6.95988e-14 0)
(3.54938e-14 -2.30563e-14 0)
(8.7927e-14 1.88446e-14 0)
(5.82249e-14 6.14471e-14 0)
(1.30388e-13 3.51755e-14 0)
(1.74735e-13 -5.79316e-14 0)
(1.66188e-13 -1.66906e-13 0)
(6.34445e-14 -1.86201e-13 0)
(1.09029e-14 -3.05154e-13 0)
(5.84672e-14 -2.88403e-13 0)
(-1.24866e-15 -3.01874e-13 0)
(-1.0571e-13 -3.00646e-13 0)
(-3.10216e-14 -2.87431e-13 0)
(2.11779e-14 -3.21645e-13 0)
(-1.82695e-14 -3.59648e-13 0)
(-2.1047e-15 -2.31573e-13 0)
(4.27917e-16 -2.18526e-13 0)
(3.57906e-14 -2.88251e-13 0)
(7.01652e-14 -2.27475e-13 0)
(-7.05603e-14 -1.92942e-13 0)
(-5.24963e-14 -2.43765e-13 0)
(8.77942e-14 -3.28507e-13 0)
(4.82288e-14 -3.00457e-13 0)
(6.65771e-14 -3.58132e-13 0)
(6.97469e-14 -3.46362e-13 0)
(9.82724e-15 -3.4293e-13 0)
(-3.82167e-14 -3.4393e-13 0)
(9.01553e-14 -3.17111e-13 0)
(1.21586e-13 -2.23834e-13 0)
(7.47867e-14 -2.01528e-13 0)
(-9.23804e-15 -2.40772e-13 0)
(-3.21157e-15 -2.05811e-13 0)
(-4.12354e-14 -1.3279e-13 0)
(-1.58699e-13 -1.8138e-13 0)
(-1.86756e-13 -3.09979e-13 0)
(-1.43772e-13 -2.6989e-13 0)
(-1.2568e-13 -2.95971e-13 0)
(-4.56781e-14 -3.0574e-13 0)
(-4.25296e-14 -4.00461e-13 0)
(-1.3487e-13 -3.6207e-13 0)
(-9.3785e-14 -2.84433e-13 0)
(-6.87199e-14 -2.12366e-13 0)
(4.04118e-15 -2.2894e-13 0)
(7.92142e-14 -1.99775e-13 0)
(3.11065e-14 -1.9569e-13 0)
(-4.38511e-14 -2.59621e-13 0)
(-1.92294e-14 -1.90352e-13 0)
(1.77601e-14 -8.71839e-14 0)
(1.33128e-13 -1.33206e-13 0)
(1.34019e-13 -1.59051e-13 0)
(1.84013e-15 -2.25688e-13 0)
(-1.74073e-14 -2.97402e-13 0)
(1.69141e-15 -2.79558e-13 0)
(4.3747e-14 -3.12987e-13 0)
(3.75867e-14 -3.31666e-13 0)
(9.97662e-14 -2.71181e-13 0)
(1.33589e-13 -2.52209e-13 0)
(2.33022e-14 -1.30098e-13 0)
(-1.61882e-13 -1.63529e-13 0)
(-1.70205e-13 -2.62499e-13 0)
(-2.30039e-13 -3.10232e-13 0)
(-2.18879e-13 -2.73685e-13 0)
(-1.14087e-13 -2.60376e-13 0)
(-1.2346e-13 -2.88993e-13 0)
(-5.07604e-14 -2.43022e-13 0)
(4.68991e-14 -1.68761e-13 0)
(1.5703e-14 -8.30346e-14 0)
(3.42859e-14 -1.08322e-13 0)
(3.4042e-14 -6.48578e-14 0)
(-2.99872e-14 -1.01297e-13 0)
(7.77169e-15 -2.41681e-13 0)
(5.60039e-14 -3.57268e-13 0)
(1.29735e-13 -2.6215e-13 0)
(5.82618e-14 -2.96748e-13 0)
(3.29644e-14 -2.95144e-13 0)
(-1.12662e-13 -3.8524e-13 0)
(-1.52417e-13 -4.7954e-13 0)
(-1.75145e-14 -4.07117e-13 0)
(1.29814e-14 -3.70389e-13 0)
(1.63741e-14 -2.57485e-13 0)
(6.04094e-14 -2.817e-13 0)
(1.27065e-13 -2.64161e-13 0)
(9.71907e-14 -2.1778e-13 0)
(-1.03877e-13 -2.16736e-13 0)
(-8.68664e-14 -2.87195e-13 0)
(-6.28648e-14 -3.28455e-13 0)
(-5.11462e-14 -3.69064e-13 0)
(-8.80786e-15 -3.58607e-13 0)
(1.93958e-14 -3.50274e-13 0)
(8.47986e-14 -2.72287e-13 0)
(5.08296e-14 -1.76696e-13 0)
(-2.0007e-14 -1.91079e-13 0)
(4.82874e-14 -3.42029e-13 0)
(1.98224e-13 -3.41516e-13 0)
(1.79689e-13 -2.95769e-13 0)
(8.22254e-14 -3.33528e-13 0)
(-4.32825e-14 -3.28138e-13 0)
(-5.65934e-14 -2.75431e-13 0)
(-3.00532e-14 -2.99851e-13 0)
(1.18259e-14 -1.94329e-13 0)
(5.30914e-14 -2.26256e-13 0)
(5.72763e-14 -2.72677e-13 0)
(8.79811e-14 -3.31726e-13 0)
(2.50832e-14 -3.73621e-13 0)
(-5.55184e-15 -4.16611e-13 0)
(-3.19407e-15 -4.17238e-13 0)
(-1.04083e-13 -3.78159e-13 0)
(-8.87297e-14 -3.94287e-13 0)
(-1.49906e-13 -4.1959e-13 0)
(-2.09066e-13 -4.95783e-13 0)
(-1.32821e-13 -5.21781e-13 0)
(-3.68621e-14 -5.91086e-13 0)
(7.17887e-16 -5.90631e-13 0)
(4.22143e-14 -5.32301e-13 0)
(-6.35135e-14 -4.26553e-13 0)
(-2.39893e-13 -3.92832e-13 0)
(-2.17274e-13 -3.84794e-13 0)
(-1.39355e-13 -3.84026e-13 0)
(-2.94347e-14 -3.39907e-13 0)
(-3.85661e-14 -3.84487e-13 0)
(-3.32764e-14 -3.9502e-13 0)
(7.47197e-14 -3.90099e-13 0)
(-5.55822e-15 -3.45486e-13 0)
(-1.77054e-13 -3.25795e-13 0)
(-9.43356e-14 -3.42203e-13 0)
(2.19625e-14 -3.33851e-13 0)
(2.19278e-14 -2.77303e-13 0)
(-1.64177e-14 -3.36746e-13 0)
(7.01824e-14 -4.02861e-13 0)
(1.89448e-13 -3.48997e-13 0)
(5.57988e-14 -2.77313e-13 0)
(-1.62756e-13 -2.82071e-13 0)
(-2.12243e-13 -3.4383e-13 0)
(-1.42887e-13 -4.14326e-13 0)
(-3.40303e-14 -4.91154e-13 0)
(1.55543e-14 -5.67559e-13 0)
(3.70912e-14 -5.93228e-13 0)
(9.50443e-14 -5.19256e-13 0)
(1.59911e-13 -4.58693e-13 0)
(7.79288e-14 -3.77729e-13 0)
(-1.69495e-13 -3.97762e-13 0)
(-9.49334e-14 -3.68556e-13 0)
(-1.62614e-14 -4.10584e-13 0)
(4.2956e-14 -2.28873e-13 0)
(2.15697e-13 -2.30907e-13 0)
(2.36224e-13 -1.57704e-13 0)
(1.92351e-13 -1.88883e-13 0)
(2.17761e-13 -1.77524e-13 0)
(1.96192e-13 -2.18735e-13 0)
(-2.27201e-14 -1.67076e-13 0)
(-9.60039e-14 -1.68003e-13 0)
(-3.72597e-14 -1.47872e-13 0)
(-4.96953e-14 -2.40239e-13 0)
(-5.37551e-14 -2.81957e-13 0)
(5.21434e-14 -2.62779e-13 0)
(9.63768e-14 -2.59672e-13 0)
(-9.91556e-15 -1.49875e-13 0)
(4.33094e-14 -6.4525e-14 0)
(1.35359e-14 -8.29577e-14 0)
(-5.08221e-14 -1.48492e-13 0)
(-3.20153e-14 -1.94223e-13 0)
(4.60674e-15 -1.90933e-13 0)
(2.62477e-14 -1.84914e-13 0)
(4.51141e-15 -2.09514e-13 0)
(-4.38606e-14 -1.66081e-13 0)
(-7.98271e-14 -7.27112e-14 0)
(-1.26425e-13 -1.29168e-13 0)
(-5.48281e-14 -7.14762e-14 0)
(9.08658e-14 -9.89813e-14 0)
(1.36848e-13 -5.53565e-14 0)
(1.00279e-13 -6.96815e-14 0)
(1.18963e-13 -8.23087e-14 0)
(7.81736e-14 -2.36981e-14 0)
(1.38048e-13 -8.04563e-14 0)
(6.31501e-14 -1.62111e-13 0)
(-8.47546e-14 -2.60234e-13 0)
(9.66001e-15 -3.52318e-13 0)
(-4.56656e-14 -4.41792e-13 0)
(-1.4313e-13 -3.76855e-13 0)
(-2.5578e-16 -3.43608e-13 0)
(8.01153e-14 -2.99932e-13 0)
(5.67107e-14 -2.88971e-13 0)
(9.2812e-14 -2.61206e-13 0)
(-2.74382e-14 -1.51388e-13 0)
(-3.91438e-14 -1.9453e-13 0)
(9.93963e-14 -2.00535e-13 0)
(-7.83145e-14 -2.34638e-13 0)
(-9.68641e-14 -2.50412e-13 0)
(5.8008e-14 -3.0488e-13 0)
(3.40275e-14 -2.33593e-13 0)
(3.95753e-14 -3.07456e-13 0)
(1.18702e-13 -3.53402e-13 0)
(-1.73464e-14 -3.64915e-13 0)
(-1.10899e-13 -3.82485e-13 0)
(1.37406e-13 -4.05957e-13 0)
(2.14804e-13 -3.2346e-13 0)
(4.471e-14 -2.94178e-13 0)
(6.36595e-15 -2.69397e-13 0)
(9.82035e-14 -1.64199e-13 0)
(-2.53358e-14 -1.23684e-13 0)
(-2.6923e-13 -1.65366e-13 0)
(-2.85977e-13 -2.50734e-13 0)
(-1.16458e-13 -2.76279e-13 0)
(-8.69661e-14 -2.35694e-13 0)
(-1.01209e-13 -2.53782e-13 0)
(-6.60461e-14 -2.87461e-13 0)
(-4.59333e-14 -2.94981e-13 0)
(3.39243e-14 -1.51156e-13 0)
(-3.80589e-14 -1.55838e-13 0)
(-9.7513e-15 -1.12508e-13 0)
(7.82727e-14 -1.31256e-13 0)
(-3.59092e-14 -1.95858e-13 0)
(-4.96799e-14 -2.19381e-13 0)
(5.68882e-14 -2.21408e-13 0)
(3.69734e-14 -1.43804e-13 0)
(7.21097e-14 -1.69895e-13 0)
(6.6865e-14 -2.33003e-13 0)
(-1.02176e-13 -2.76262e-13 0)
(-5.48061e-14 -4.00147e-13 0)
(2.28292e-14 -4.06141e-13 0)
(3.22008e-14 -3.40634e-13 0)
(1.03698e-13 -3.54604e-13 0)
(1.41767e-13 -2.84785e-13 0)
(1.73972e-13 -2.64993e-13 0)
(6.60768e-14 -2.27712e-13 0)
(-1.87e-13 -1.33724e-13 0)
(-2.91969e-13 -1.81051e-13 0)
(-1.8334e-13 -2.63613e-13 0)
(-1.90016e-13 -1.8214e-13 0)
(-1.69784e-13 -2.63995e-13 0)
(-7.0849e-14 -2.29101e-13 0)
(-1.11937e-14 -1.57437e-13 0)
(1.59046e-13 -5.0169e-14 0)
(7.16976e-14 -7.54896e-14 0)
(2.31553e-14 -1.86838e-14 0)
(3.10399e-14 -1.07824e-13 0)
(-1.17076e-13 -1.5458e-13 0)
(-1.41005e-13 -2.38534e-13 0)
(9.32634e-14 -2.81033e-13 0)
(1.20445e-13 -2.36685e-13 0)
(7.85404e-14 -3.47065e-13 0)
(1.2622e-14 -3.03086e-13 0)
(-2.15074e-13 -4.4478e-13 0)
(-1.92909e-13 -4.13678e-13 0)
(-2.11109e-15 -4.7382e-13 0)
(5.71814e-14 -4.09239e-13 0)
(7.97264e-14 -3.98858e-13 0)
(8.00177e-14 -2.86892e-13 0)
(1.41992e-13 -2.11647e-13 0)
(1.30744e-13 -2.84283e-13 0)
(-1.16109e-13 -2.57487e-13 0)
(-1.72104e-13 -2.7322e-13 0)
(-1.17541e-13 -3.40215e-13 0)
(-9.06397e-14 -3.11159e-13 0)
(-3.5922e-14 -3.80702e-13 0)
(8.65725e-14 -3.72014e-13 0)
(2.04082e-13 -3.05185e-13 0)
(1.42105e-13 -2.36043e-13 0)
(-6.63844e-14 -2.56719e-13 0)
(-6.67099e-14 -2.73045e-13 0)
(1.49074e-13 -3.14134e-13 0)
(2.20764e-13 -3.22595e-13 0)
(1.00314e-13 -2.5312e-13 0)
(1.94879e-15 -2.45456e-13 0)
(-3.9187e-15 -2.19817e-13 0)
(4.4637e-14 -2.69972e-13 0)
(9.38617e-14 -2.38601e-13 0)
(-8.13188e-15 -2.83369e-13 0)
(-3.74834e-14 -3.16742e-13 0)
(3.55462e-14 -3.57494e-13 0)
(-6.25397e-15 -3.75234e-13 0)
(-5.01853e-14 -3.64326e-13 0)
(2.98683e-14 -4.08306e-13 0)
(-1.01385e-13 -4.62247e-13 0)
(-1.45268e-13 -4.66854e-13 0)
(-1.96281e-13 -5.26621e-13 0)
(-2.52985e-13 -4.37593e-13 0)
(-1.68286e-13 -4.37229e-13 0)
(-3.75562e-14 -4.53952e-13 0)
(7.02865e-14 -4.76325e-13 0)
(1.19039e-13 -4.21428e-13 0)
(-4.39732e-14 -3.42881e-13 0)
(-2.47509e-13 -3.15949e-13 0)
(-1.70971e-13 -3.34752e-13 0)
(-7.82628e-14 -2.56528e-13 0)
(-3.37884e-14 -2.02592e-13 0)
(-7.88916e-15 -2.2494e-13 0)
(5.43058e-16 -1.92979e-13 0)
(4.06874e-14 -2.4088e-13 0)
(-4.20786e-14 -3.59388e-13 0)
(-1.76475e-13 -3.80638e-13 0)
(-4.74522e-14 -2.67101e-13 0)
(3.29618e-14 -2.51494e-13 0)
(-2.01781e-14 -2.71639e-13 0)
(-4.06619e-14 -2.88845e-13 0)
(8.72218e-14 -2.20884e-13 0)
(2.15236e-13 -2.68782e-13 0)
(8.6928e-14 -3.01955e-13 0)
(-2.05446e-13 -2.76387e-13 0)
(-3.30725e-13 -3.83117e-13 0)
(-2.71316e-13 -4.4466e-13 0)
(-1.19345e-13 -4.46401e-13 0)
(3.64412e-15 -4.95866e-13 0)
(8.84374e-14 -5.19618e-13 0)
(1.81431e-13 -4.49313e-13 0)
(2.5926e-13 -4.3098e-13 0)
(1.04246e-13 -3.70784e-13 0)
(-1.05126e-13 -3.70144e-13 0)
(-3.59287e-14 -2.88645e-13 0)
(-1.54317e-14 -2.39882e-13 0)
(2.48765e-14 -1.39386e-13 0)
(2.8263e-13 -1.3817e-13 0)
(2.19961e-13 -8.60525e-14 0)
(1.64543e-13 -6.0804e-14 0)
(1.83739e-13 -1.20771e-13 0)
(1.53076e-13 -1.40115e-13 0)
(3.84688e-14 -1.75437e-13 0)
(-5.32379e-14 -1.73058e-13 0)
(-3.23054e-14 -1.84772e-13 0)
(-8.91225e-14 -2.33803e-13 0)
(-5.22425e-14 -1.83012e-13 0)
(-9.21582e-15 -1.71076e-13 0)
(1.32626e-13 -2.01776e-13 0)
(1.12155e-13 -1.97929e-13 0)
(4.28675e-14 -2.08371e-13 0)
(-1.89277e-14 -1.9919e-13 0)
(-8.46794e-14 -1.5663e-13 0)
(-3.88743e-14 -1.97805e-13 0)
(5.51505e-14 -1.84304e-13 0)
(-2.29905e-14 -1.15305e-13 0)
(-6.44442e-14 -1.41857e-13 0)
(-1.66757e-14 -1.36804e-13 0)
(-3.11562e-14 -1.48169e-13 0)
(-7.49492e-14 -1.22734e-13 0)
(1.26658e-14 -4.63039e-14 0)
(9.35555e-14 -2.46307e-14 0)
(1.05574e-13 -7.5068e-14 0)
(5.49865e-14 -4.14053e-14 0)
(1.56256e-13 -2.04908e-14 0)
(1.08417e-13 4.08123e-14 0)
(5.6119e-14 7.59206e-14 0)
(-2.21325e-14 -2.80419e-14 0)
(-2.11231e-13 -1.27525e-13 0)
(-9.50353e-14 -2.2997e-13 0)
(-3.79593e-15 -3.00443e-13 0)
(-2.63389e-14 -2.57979e-13 0)
(4.82118e-14 -2.2074e-13 0)
(4.9613e-14 -2.56385e-13 0)
(1.61563e-14 -2.67665e-13 0)
(1.22949e-13 -2.61831e-13 0)
(4.42889e-14 -2.10618e-13 0)
(-5.40252e-15 -1.9943e-13 0)
(4.68924e-14 -1.91363e-13 0)
(-1.07743e-13 -2.00359e-13 0)
(-1.13942e-13 -1.50392e-13 0)
(6.82988e-14 -2.35978e-13 0)
(7.72791e-14 -3.24192e-13 0)
(-2.93683e-14 -3.21014e-13 0)
(1.30666e-14 -3.50398e-13 0)
(-1.25818e-14 -4.12693e-13 0)
(-3.90983e-14 -3.7539e-13 0)
(1.47258e-13 -2.97951e-13 0)
(2.44105e-13 -3.88876e-13 0)
(1.15199e-13 -3.17208e-13 0)
(5.86163e-14 -1.84082e-13 0)
(1.63935e-13 -1.47797e-13 0)
(-5.68677e-14 -1.45878e-13 0)
(-2.98761e-13 -1.96028e-13 0)
(-2.51546e-13 -1.90678e-13 0)
(-1.35588e-13 -2.14477e-13 0)
(-6.99538e-14 -2.57952e-13 0)
(-5.51915e-14 -2.23762e-13 0)
(-8.20041e-14 -1.73389e-13 0)
(-2.16847e-14 -1.84665e-13 0)
(-1.23572e-14 -1.80694e-13 0)
(-2.92608e-14 -1.93843e-13 0)
(3.52848e-14 -1.29948e-13 0)
(-1.78064e-14 -1.39882e-13 0)
(-3.5299e-14 -1.72654e-13 0)
(-4.40752e-14 -1.36266e-13 0)
(2.43482e-14 -2.20752e-13 0)
(9.40871e-14 -2.84896e-13 0)
(4.60935e-14 -2.78502e-13 0)
(-1.89614e-15 -3.08584e-13 0)
(-1.79511e-13 -3.73855e-13 0)
(-1.4676e-13 -3.27213e-13 0)
(9.40241e-14 -3.13483e-13 0)
(8.64691e-14 -3.13071e-13 0)
(9.7299e-14 -2.86987e-13 0)
(1.93521e-13 -2.90037e-13 0)
(1.86684e-13 -2.53789e-13 0)
(7.34626e-14 -1.82944e-13 0)
(-1.19389e-13 -1.88193e-13 0)
(-2.83707e-13 -1.53407e-13 0)
(-2.24298e-13 -1.72746e-13 0)
(-1.68171e-13 -2.49733e-13 0)
(-1.29079e-13 -1.70861e-13 0)
(-5.41585e-14 -1.26115e-13 0)
(6.75269e-14 -1.0697e-13 0)
(1.52845e-13 -7.26468e-14 0)
(6.69351e-14 -8.77721e-14 0)
(4.26932e-15 -9.22013e-14 0)
(-8.87026e-14 -1.46632e-13 0)
(-1.12912e-13 -2.01762e-13 0)
(-8.27261e-14 -2.18654e-13 0)
(2.14687e-14 -2.67191e-13 0)
(4.35187e-14 -4.31152e-13 0)
(1.91214e-14 -4.18901e-13 0)
(-5.33627e-14 -4.91781e-13 0)
(-2.28941e-13 -4.59763e-13 0)
(-1.28432e-13 -3.83801e-13 0)
(1.71278e-14 -3.99244e-13 0)
(5.6073e-14 -3.63292e-13 0)
(1.08984e-13 -3.26772e-13 0)
(2.28742e-13 -2.54628e-13 0)
(1.68079e-13 -1.66885e-13 0)
(5.86121e-14 -1.79704e-13 0)
(-9.68036e-14 -2.13124e-13 0)
(-2.04361e-13 -1.09301e-13 0)
(-9.96583e-14 -1.87328e-13 0)
(-7.51038e-14 -1.73225e-13 0)
(-4.26683e-14 -1.66884e-13 0)
(1.04388e-13 -2.08132e-13 0)
(1.98873e-13 -2.96743e-13 0)
(9.92217e-14 -3.09288e-13 0)
(-4.6763e-14 -3.22235e-13 0)
(1.67118e-14 -2.4004e-13 0)
(1.53127e-13 -2.54259e-13 0)
(2.00037e-13 -2.65669e-13 0)
(1.88462e-13 -2.07919e-13 0)
(1.15861e-14 -1.21516e-13 0)
(-1.00685e-13 -2.45275e-13 0)
(-3.56935e-14 -2.98011e-13 0)
(4.92302e-14 -3.38717e-13 0)
(-2.87573e-14 -3.32604e-13 0)
(-8.02859e-15 -3.23832e-13 0)
(3.69048e-14 -3.39018e-13 0)
(1.81674e-14 -2.88149e-13 0)
(-3.29938e-14 -3.40665e-13 0)
(-7.45236e-14 -4.04039e-13 0)
(-1.04751e-13 -4.53304e-13 0)
(-1.70063e-13 -4.09722e-13 0)
(-1.68051e-13 -4.1654e-13 0)
(-1.8371e-13 -2.83314e-13 0)
(-1.82913e-13 -2.45361e-13 0)
(-4.28584e-14 -2.04775e-13 0)
(6.57119e-14 -2.04892e-13 0)
(1.6915e-13 -2.46517e-13 0)
(3.03415e-15 -2.91351e-13 0)
(-1.97308e-13 -1.60216e-13 0)
(-1.55955e-13 -1.40146e-13 0)
(-1.37188e-14 -1.0458e-13 0)
(3.65037e-14 -7.14787e-14 0)
(1.09985e-14 -1.34972e-13 0)
(-3.75732e-14 -1.23538e-13 0)
(-9.08361e-14 -2.30767e-13 0)
(-1.32359e-13 -3.02512e-13 0)
(-7.65144e-14 -2.54344e-13 0)
(1.0981e-14 -2.06565e-13 0)
(2.04931e-14 -2.00383e-13 0)
(1.07164e-14 -2.21937e-13 0)
(2.10565e-15 -1.86858e-13 0)
(6.6479e-14 -2.18243e-13 0)
(1.3496e-13 -2.29353e-13 0)
(3.9552e-14 -3.32656e-13 0)
(-2.4272e-13 -2.65507e-13 0)
(-3.23081e-13 -2.41524e-13 0)
(-2.4542e-13 -2.28991e-13 0)
(-1.68346e-13 -1.59462e-13 0)
(-4.16071e-14 -2.52102e-13 0)
(1.22479e-13 -2.46025e-13 0)
(1.61937e-13 -2.34539e-13 0)
(2.4543e-13 -2.95835e-13 0)
(1.76355e-13 -3.53255e-13 0)
(-3.15057e-14 -2.08018e-13 0)
(1.42866e-14 -1.99217e-13 0)
(8.30995e-14 -1.79912e-13 0)
(1.20005e-13 -6.04132e-14 0)
(2.71233e-13 -3.30424e-14 0)