/*--------------------------------*- C++ -*----------------------------------*\
  =========                 |
  \\      /  F ield         | OpenFOAM: The Open Source CFD Toolbox
   \\    /   O peration     | Website:  https://openfoam.org
    \\  /    A nd           | Version:  13
     \\/     M anipulation  |
\*---------------------------------------------------------------------------*/
FoamFile
{
    format      ascii;
    class       volVectorField;
    location    "0.0017";
    object      U;
}
// * * * * * * * * * * * * * * * * * * * * * * * * * * * * * * * * * * * * * //

dimensions      [0 1 -1 0 0 0 0];

internalField   nonuniform List<vector> 
33333
(
(1.48142e-14 4.40516e-13 0)
(1.24379e-13 3.79802e-13 0)
(-1.15897e-13 3.27458e-13 0)
(-9.07204e-14 2.90332e-13 0)
(-8.20269e-14 2.12321e-13 0)
(-2.11312e-13 2.8512e-13 0)
(-1.1348e-13 3.57601e-13 0)
(-3.67045e-15 4.05143e-13 0)
(-3.30405e-14 3.52729e-13 0)
(-1.17486e-13 3.94567e-13 0)
(-4.9752e-14 4.25026e-13 0)
(2.177e-14 4.30655e-13 0)
(6.57047e-15 2.90715e-13 0)
(-9.85033e-14 1.78286e-13 0)
(-2.05642e-13 2.08076e-13 0)
(-1.04188e-13 2.7159e-13 0)
(-5.95693e-14 2.22927e-13 0)
(-8.77636e-14 2.87252e-13 0)
(6.53482e-14 3.05386e-13 0)
(2.89174e-13 3.15556e-13 0)
(4.84803e-13 3.00423e-13 0)
(1.50041e-13 3.36703e-13 0)
(-1.42996e-13 3.05417e-13 0)
(-9.53219e-14 2.42959e-13 0)
(-2.44519e-13 2.95167e-13 0)
(-1.05025e-13 4.35662e-13 0)
(1.22271e-13 4.40019e-13 0)
(2.77827e-13 4.23382e-13 0)
(4.65765e-13 3.74003e-13 0)
(2.41799e-13 1.88356e-13 0)
(-2.68427e-14 2.93667e-13 0)
(7.36794e-14 3.35318e-13 0)
(1.65589e-13 3.83956e-13 0)
(-9.29275e-14 3.91545e-13 0)
(-4.26026e-13 4.83073e-13 0)
(-3.4935e-13 5.6933e-13 0)
(-8.17483e-14 5.65577e-13 0)
(-2.19179e-13 5.04523e-13 0)
(-3.98745e-13 3.25819e-13 0)
(-4.50145e-13 2.45129e-13 0)
(-4.62972e-13 3.06767e-13 0)
(-3.16439e-13 2.97402e-13 0)
(-7.78462e-14 3.28451e-13 0)
(3.34702e-14 1.88462e-13 0)
(1.95134e-13 2.43943e-13 0)
(5.6449e-13 2.80533e-13 0)
(4.13728e-13 3.6743e-13 0)
(-5.46658e-14 5.515e-13 0)
(-5.70317e-14 6.4789e-13 0)
(1.47694e-14 5.86875e-13 0)
(1.33208e-13 4.67653e-13 0)
(2.58265e-13 3.68477e-13 0)
(3.64543e-13 3.87913e-13 0)
(5.82778e-13 4.34807e-13 0)
(1.82831e-13 4.4493e-13 0)
(-2.04735e-13 3.94724e-13 0)
(-2.23614e-14 4.05752e-13 0)
(3.4339e-15 2.63674e-13 0)
(1.60018e-14 1.94355e-13 0)
(-3.56167e-14 1.40994e-13 0)
(-3.6099e-14 2.83234e-13 0)
(3.03628e-13 3.29454e-13 0)
(2.19415e-13 1.70183e-13 0)
(-7.39022e-14 1.11896e-13 0)
(-9.11917e-14 1.1435e-13 0)
(3.61229e-14 2.04979e-13 0)
(1.28076e-13 1.41836e-13 0)
(-2.15679e-13 1.63465e-13 0)
(-2.92021e-13 3.22179e-13 0)
(-8.87795e-14 2.8497e-13 0)
(1.05368e-13 1.54884e-13 0)
(5.77927e-14 -9.97265e-15 0)
(6.11607e-16 9.57462e-14 0)
(-1.04593e-13 6.38912e-14 0)
(-1.98345e-13 1.65361e-13 0)
(-1.53622e-13 2.18766e-13 0)
(-2.08479e-13 2.80272e-13 0)
(-1.74387e-13 3.74475e-13 0)
(5.32983e-14 4.88505e-13 0)
(-8.88011e-14 4.74086e-13 0)
(-1.73542e-13 4.52292e-13 0)
(6.90909e-14 3.9282e-13 0)
(1.54978e-13 2.87885e-13 0)
(1.13264e-13 3.02599e-13 0)
(1.8098e-13 4.90428e-13 0)
(4.30114e-13 5.98672e-13 0)
(5.27699e-13 7.09129e-13 0)
(3.03043e-14 5.63349e-13 0)
(-2.16221e-13 4.35829e-13 0)
(-1.21852e-13 3.59979e-13 0)
(-9.15276e-14 4.31017e-13 0)
(-1.03587e-13 3.91404e-13 0)
(-2.11071e-13 4.91317e-13 0)
(-1.49167e-13 5.82026e-13 0)
(1.93481e-15 5.16372e-13 0)
(2.56189e-13 4.42162e-13 0)
(1.32242e-13 4.50675e-13 0)
(-1.26947e-13 3.63568e-13 0)
(-9.66386e-14 1.70428e-13 0)
(-1.43577e-13 2.12821e-13 0)
(6.02294e-14 3.01504e-13 0)
(3.67976e-13 3.241e-13 0)
(4.71586e-13 3.93598e-13 0)
(5.04426e-13 3.58536e-13 0)
(3.07397e-13 3.26002e-13 0)
(5.58775e-15 5.94487e-13 0)
(8.41076e-14 5.02333e-13 0)
(-5.0826e-15 3.61055e-13 0)
(-3.24786e-13 3.83291e-13 0)
(-3.41206e-13 5.11769e-13 0)
(-1.04898e-13 4.57655e-13 0)
(1.95418e-13 4.07525e-13 0)
(7.77161e-15 2.95859e-13 0)
(-3.21541e-13 2.77442e-13 0)
(-1.16786e-13 2.99943e-13 0)
(4.36795e-14 3.13664e-13 0)
(-1.65063e-13 2.03539e-13 0)
(-4.29382e-13 3.07085e-13 0)
(-3.10602e-13 3.53046e-13 0)
(1.4877e-13 3.35115e-13 0)
(2.22919e-13 1.96309e-13 0)
(-9.44106e-14 4.22063e-13 0)
(-3.57229e-14 4.42279e-13 0)
(5.34439e-14 2.97633e-13 0)
(-1.03803e-13 2.98523e-13 0)
(-4.3784e-14 3.9772e-13 0)
(2.33698e-13 4.04687e-13 0)
(1.40917e-13 2.78484e-13 0)
(-7.24775e-14 3.69778e-13 0)
(-6.31325e-15 3.95956e-13 0)
(6.38088e-14 3.89938e-13 0)
(6.50356e-14 3.92014e-13 0)
(3.445e-14 3.34438e-13 0)
(1.97032e-13 3.76283e-13 0)
(3.71782e-13 5.14881e-13 0)
(3.35286e-13 7.15471e-13 0)
(5.15824e-13 6.57122e-13 0)
(4.12415e-13 6.33557e-13 0)
(2.70747e-13 5.97098e-13 0)
(3.33713e-13 4.04909e-13 0)
(4.69213e-13 3.89832e-13 0)
(6.24706e-13 2.86538e-13 0)
(7.39191e-13 3.16871e-13 0)
(8.82845e-13 2.74279e-13 0)
(1.13151e-12 3.12586e-13 0)
(1.32191e-12 2.74944e-13 0)
(1.12552e-12 2.32971e-13 0)
(9.57241e-13 3.97387e-13 0)
(1.0667e-12 3.38687e-13 0)
(1.32813e-12 2.44304e-13 0)
(1.59848e-12 2.09995e-13 0)
(1.89479e-12 2.93235e-13 0)
(1.85749e-12 1.5261e-13 0)
(1.63816e-12 2.6858e-13 0)
(1.58805e-12 3.38265e-13 0)
(1.52049e-12 3.85916e-13 0)
(1.67008e-12 2.20706e-13 0)
(1.91351e-12 2.47411e-13 0)
(2.11642e-12 1.77772e-13 0)
(1.98871e-12 1.57549e-13 0)
(1.62484e-12 3.49621e-13 0)
(9.09049e-13 3.9592e-13 0)
(2.82451e-13 3.54358e-13 0)
(-4.13191e-13 3.93959e-13 0)
(-1.06188e-12 6.73732e-13 0)
(-1.68261e-12 4.82262e-13 0)
(-2.37717e-12 3.65938e-13 0)
(-8.99351e-14 3.40543e-13 0)
(4.81703e-14 1.29753e-13 0)
(-1.50404e-13 6.91573e-14 0)
(-8.88056e-14 2.96739e-13 0)
(8.14266e-16 4.58433e-13 0)
(-1.29751e-13 6.29479e-13 0)
(-8.88803e-14 6.74491e-13 0)
(-1.4552e-13 5.88749e-13 0)
(-1.21856e-13 3.94368e-13 0)
(-1.13831e-13 1.70865e-13 0)
(-6.74736e-14 1.14331e-13 0)
(-9.68941e-15 1.77908e-13 0)
(-8.64288e-14 3.7371e-13 0)
(-1.01198e-13 4.86956e-13 0)
(-1.37768e-13 4.95581e-13 0)
(-6.60699e-14 4.79357e-13 0)
(5.33433e-14 5.48223e-13 0)
(5.20295e-14 7.15966e-13 0)
(8.37073e-14 7.08056e-13 0)
(1.83504e-13 6.2096e-13 0)
(3.8204e-13 4.70795e-13 0)
(1.46416e-13 2.56338e-13 0)
(-1.27029e-13 4.92477e-13 0)
(-4.91308e-14 5.72495e-13 0)
(-9.75299e-14 6.65014e-13 0)
(-2.13496e-14 5.00106e-13 0)
(1.2164e-13 6.28636e-13 0)
(2.38264e-13 5.67007e-13 0)
(3.25636e-13 8.12833e-13 0)
(1.81432e-13 7.13912e-13 0)
(2.31067e-14 8.50476e-13 0)
(2.97251e-14 7.65965e-13 0)
(4.76658e-14 6.60384e-13 0)
(-1.46161e-13 4.63188e-13 0)
(-3.18122e-13 4.62336e-13 0)
(-3.44258e-13 5.9228e-13 0)
(-1.27504e-13 5.44062e-13 0)
(-2.69601e-13 4.63154e-13 0)
(-5.25734e-13 5.38645e-13 0)
(-4.23165e-13 5.84134e-13 0)
(-3.00241e-13 5.28803e-13 0)
(-1.90464e-13 5.71275e-13 0)
(-2.33177e-13 5.30521e-13 0)
(-9.92282e-14 3.78268e-13 0)
(2.61644e-13 4.39176e-13 0)
(5.76995e-13 4.63838e-13 0)
(4.52701e-13 4.3051e-13 0)
(1.17924e-13 4.59774e-13 0)
(6.42367e-14 6.87672e-13 0)
(-3.18069e-14 5.88241e-13 0)
(5.377e-14 5.22942e-13 0)
(2.43325e-13 6.21394e-13 0)
(4.02705e-13 8.04286e-13 0)
(5.31144e-13 8.83528e-13 0)
(1.18171e-13 7.38186e-13 0)
(-2.20272e-13 8.83951e-13 0)
(-1.58971e-13 9.20641e-13 0)
(-2.18302e-13 7.46798e-13 0)
(-1.29714e-13 4.74915e-13 0)
(-1.39002e-14 2.33204e-13 0)
(4.75191e-14 3.67347e-13 0)
(2.37152e-13 2.45063e-13 0)
(1.51917e-13 1.1557e-13 0)
(-4.47027e-14 2.58694e-13 0)
(1.43943e-14 4.25396e-13 0)
(7.0017e-14 4.62348e-13 0)
(6.87564e-14 4.37212e-13 0)
(-1.85535e-13 3.9838e-13 0)
(-2.68009e-13 2.07355e-13 0)
(-1.26864e-13 1.1955e-13 0)
(-1.6096e-15 -7.38154e-15 0)
(-7.42519e-16 -9.4614e-14 0)
(3.16284e-14 -6.08712e-14 0)
(-7.62502e-14 5.56311e-14 0)
(-1.3591e-13 2.34542e-14 0)
(-6.72195e-14 9.22716e-14 0)
(-8.98916e-14 2.70849e-13 0)
(2.75321e-14 5.33732e-13 0)
(2.48701e-13 5.85241e-13 0)
(-5.51405e-14 4.89058e-13 0)
(-2.74205e-13 5.90931e-13 0)
(-1.71763e-13 5.46559e-13 0)
(-1.00832e-14 6.60285e-13 0)
(1.04475e-13 5.1176e-13 0)
(3.24439e-13 4.9459e-13 0)
(5.50878e-13 6.31988e-13 0)
(4.93885e-13 4.28917e-13 0)
(-4.3755e-14 3.51085e-13 0)
(-2.83325e-13 4.60299e-13 0)
(-1.19572e-13 5.46645e-13 0)
(-8.04956e-14 5.80931e-13 0)
(-9.07302e-14 7.24583e-13 0)
(-1.67507e-13 8.01432e-13 0)
(-1.37054e-13 6.13752e-13 0)
(1.45678e-14 6.95155e-13 0)
(2.94912e-13 6.43782e-13 0)
(1.42219e-13 3.88536e-13 0)
(-2.33508e-13 4.53453e-13 0)
(-1.80176e-13 4.41555e-13 0)
(-5.09967e-14 5.00406e-13 0)
(8.02013e-14 3.37872e-13 0)
(3.02116e-13 4.89738e-13 0)
(4.46661e-13 4.24221e-13 0)
(4.89759e-13 6.70357e-13 0)
(5.34518e-13 6.45233e-13 0)
(1.54921e-13 7.66935e-13 0)
(-1.93446e-13 8.60322e-13 0)
(-1.82454e-13 6.68905e-13 0)
(-2.54145e-13 5.73597e-13 0)
(-2.44451e-13 6.31043e-13 0)
(-1.49039e-13 6.50961e-13 0)
(4.54764e-14 4.74401e-13 0)
(-6.29517e-14 2.32864e-13 0)
(-2.57043e-13 2.62219e-13 0)
(-7.97663e-14 3.75703e-13 0)
(-3.90563e-14 1.49972e-13 0)
(-1.68893e-13 1.6028e-13 0)
(-3.40898e-13 9.75541e-14 0)
(-3.45852e-13 1.97698e-13 0)
(1.25005e-14 3.23101e-13 0)
(3.72736e-13 1.35545e-13 0)
(1.68798e-13 3.97634e-13 0)
(-1.47137e-13 5.66897e-13 0)
(-1.00926e-14 6.10486e-13 0)
(-4.3301e-14 6.06701e-13 0)
(-5.58179e-14 3.91752e-13 0)
(1.22769e-13 4.03364e-13 0)
(8.67933e-14 3.04438e-13 0)
(3.34564e-14 4.24497e-13 0)
(9.84638e-14 7.66775e-13 0)
(1.14128e-13 8.2826e-13 0)
(3.17353e-14 8.11481e-13 0)
(-4.88445e-14 7.67609e-13 0)
(1.77064e-13 6.83444e-13 0)
(4.6645e-13 6.36147e-13 0)
(3.79854e-13 6.61798e-13 0)
(4.23821e-13 5.26186e-13 0)
(4.66996e-13 4.54567e-13 0)
(1.6935e-13 6.75161e-13 0)
(2.12887e-13 5.35357e-13 0)
(5.01808e-13 5.16102e-13 0)
(7.04896e-13 6.79329e-13 0)
(8.73625e-13 6.18282e-13 0)
(9.57903e-13 6.54503e-13 0)
(1.05534e-12 7.42006e-13 0)
(1.19037e-12 6.49497e-13 0)
(1.2705e-12 5.68853e-13 0)
(1.16866e-12 4.80124e-13 0)
(1.23429e-12 4.73935e-13 0)
(1.50437e-12 4.49727e-13 0)
(1.677e-12 5.22198e-13 0)
(1.82452e-12 3.97593e-13 0)
(1.94165e-12 1.33719e-13 0)
(1.91334e-12 1.27644e-13 0)
(1.9012e-12 8.86581e-14 0)
(1.77012e-12 2.73995e-13 0)
(1.70885e-12 5.69062e-13 0)
(1.88537e-12 5.72901e-13 0)
(2.00889e-12 2.44226e-13 0)
(2.10327e-12 1.95729e-13 0)
(1.80922e-12 1.72976e-13 0)
(1.15468e-12 9.96975e-14 0)
(4.32541e-13 2.53462e-13 0)
(-3.29471e-13 2.26116e-13 0)
(-9.80674e-13 5.57402e-13 0)
(-1.80215e-12 4.09719e-13 0)
(-2.50852e-12 5.64432e-13 0)
(-3.18461e-13 3.92457e-13 0)
(-8.48648e-14 3.13789e-13 0)
(1.82278e-14 2.78043e-13 0)
(1.50837e-13 4.18223e-13 0)
(1.15295e-13 4.4827e-13 0)
(-1.0923e-14 6.1504e-13 0)
(-1.555e-13 5.83955e-13 0)
(-2.42166e-13 4.20653e-13 0)
(-4.36386e-13 2.15022e-13 0)
(-3.88967e-13 1.25826e-13 0)
(-5.30478e-14 1.35084e-13 0)
(2.37074e-13 1.69489e-13 0)
(2.18395e-13 4.21464e-13 0)
(2.5732e-14 5.6446e-13 0)
(-1.61648e-13 4.58817e-13 0)
(-4.51445e-14 4.78854e-13 0)
(2.10588e-13 5.31215e-13 0)
(1.63339e-13 7.65511e-13 0)
(6.27392e-15 8.25733e-13 0)
(5.77381e-14 7.37077e-13 0)
(1.53178e-13 6.84503e-13 0)
(1.19217e-13 5.61043e-13 0)
(7.98014e-14 8.45444e-13 0)
(5.9071e-14 9.07787e-13 0)
(-2.36618e-13 8.77324e-13 0)
(-1.65773e-13 6.49693e-13 0)
(1.74883e-13 6.71223e-13 0)
(4.56294e-13 7.61582e-13 0)
(5.27885e-13 9.34583e-13 0)
(2.71352e-13 9.83473e-13 0)
(-5.85249e-14 9.73395e-13 0)
(-1.60722e-13 7.73422e-13 0)
(-1.53355e-13 6.02236e-13 0)
(-2.97452e-13 5.24239e-13 0)
(-2.32934e-13 5.94911e-13 0)
(-2.63192e-13 7.10138e-13 0)
(-1.89215e-13 7.85599e-13 0)
(-2.37482e-13 6.89595e-13 0)
(-3.79307e-13 7.52137e-13 0)
(-4.80567e-13 6.49382e-13 0)
(-4.22001e-13 5.52204e-13 0)
(-3.02588e-13 5.04735e-13 0)
(-3.51252e-13 4.46297e-13 0)
(-9.02097e-14 5.63548e-13 0)
(3.249e-13 6.56248e-13 0)
(5.82653e-13 8.23642e-13 0)
(4.20467e-13 6.49369e-13 0)
(2.35366e-13 5.53836e-13 0)
(1.31452e-13 5.88421e-13 0)
(-3.50324e-14 6.93352e-13 0)
(1.36833e-13 7.41837e-13 0)
(3.29563e-13 9.82258e-13 0)
(5.01281e-13 9.71428e-13 0)
(4.01485e-13 8.73133e-13 0)
(1.6598e-13 6.06982e-13 0)
(-2.94616e-14 8.13748e-13 0)
(-1.4611e-13 8.42252e-13 0)
(-3.75573e-13 7.68625e-13 0)
(-4.78133e-13 4.62258e-13 0)
(-1.71298e-13 3.36637e-13 0)
(-3.47481e-14 3.07378e-13 0)
(1.19254e-13 2.75816e-13 0)
(2.5681e-13 2.2727e-13 0)
(2.19821e-13 4.45401e-13 0)
(8.58126e-14 6.38989e-13 0)
(-1.14377e-15 6.04847e-13 0)
(3.69691e-14 4.24923e-13 0)
(-3.61558e-13 3.91409e-13 0)
(-4.87468e-13 2.46359e-13 0)
(-2.62803e-13 2.12283e-13 0)
(-6.10201e-14 1.40992e-13 0)
(-5.89274e-14 1.00466e-13 0)
(1.13291e-13 6.4621e-14 0)
(1.64665e-14 6.64329e-14 0)
(-1.5035e-13 1.24682e-13 0)
(4.10683e-14 1.92629e-13 0)
(1.80439e-13 2.63395e-13 0)
(2.1521e-13 4.38694e-13 0)
(1.26939e-13 5.18754e-13 0)
(-4.28351e-15 4.20488e-13 0)
(-8.24229e-14 6.09756e-13 0)
(-5.22065e-14 6.87691e-13 0)
(-7.87543e-14 6.52668e-13 0)
(-3.42502e-14 5.95268e-13 0)
(3.55719e-13 5.70325e-13 0)
(3.98301e-13 7.0827e-13 0)
(2.87576e-13 5.03972e-13 0)
(4.29442e-14 4.9077e-13 0)
(-7.26732e-14 5.66783e-13 0)
(-6.37278e-14 5.34157e-13 0)
(-2.03234e-14 6.03732e-13 0)
(1.4868e-14 7.55077e-13 0)
(-2.69728e-13 7.90287e-13 0)
(-1.78991e-13 8.51783e-13 0)
(5.47628e-14 7.8844e-13 0)
(1.22502e-13 7.36196e-13 0)
(1.73764e-14 4.79111e-13 0)
(-1.16835e-13 3.84638e-13 0)
(-6.52212e-14 4.27484e-13 0)
(-1.73536e-13 6.03843e-13 0)
(1.27303e-14 5.35601e-13 0)
(3.35813e-13 6.55654e-13 0)
(5.78731e-13 5.79107e-13 0)
(6.3281e-13 7.10446e-13 0)
(4.41007e-13 6.70947e-13 0)
(1.66953e-13 6.41524e-13 0)
(-1.21949e-13 7.86332e-13 0)
(-2.80699e-13 7.44683e-13 0)
(-3.21736e-13 6.44836e-13 0)
(-2.23708e-13 6.40752e-13 0)
(-2.09602e-13 6.30744e-13 0)
(-1.29536e-13 6.61457e-13 0)
(-1.45613e-13 4.71575e-13 0)
(-1.61257e-13 4.32349e-13 0)
(-2.54013e-13 3.19065e-13 0)
(-2.27191e-13 1.51605e-13 0)
(-2.11767e-13 4.85275e-14 0)
(-3.66036e-13 1.10885e-13 0)
(-1.2286e-13 2.41713e-13 0)
(1.59011e-13 4.13597e-13 0)
(4.01133e-13 4.71236e-13 0)
(2.65442e-13 6.07218e-13 0)
(1.5454e-14 7.23055e-13 0)
(1.016e-13 6.15928e-13 0)
(-2.13255e-13 6.39088e-13 0)
(-2.24626e-13 5.00624e-13 0)
(4.38322e-14 4.55209e-13 0)
(8.81388e-14 4.53698e-13 0)
(2.41904e-13 5.42814e-13 0)
(3.1868e-13 7.04718e-13 0)
(1.40225e-13 8.83874e-13 0)
(2.77799e-14 8.52127e-13 0)
(-8.94136e-14 8.19947e-13 0)
(-5.92908e-15 7.50939e-13 0)
(2.86271e-13 6.15767e-13 0)
(2.48977e-13 6.11617e-13 0)
(3.07263e-13 6.29196e-13 0)
(5.37309e-13 4.69367e-13 0)
(3.03033e-13 3.78356e-13 0)
(2.05535e-13 4.96796e-13 0)
(5.68536e-13 5.54083e-13 0)
(7.56692e-13 5.58358e-13 0)
(8.44784e-13 7.49878e-13 0)
(1.03257e-12 8.72857e-13 0)
(1.18739e-12 8.96409e-13 0)
(1.2331e-12 8.39601e-13 0)
(1.11248e-12 7.65909e-13 0)
(1.06291e-12 6.84165e-13 0)
(1.28498e-12 6.72755e-13 0)
(1.58328e-12 6.90065e-13 0)
(1.69253e-12 7.73026e-13 0)
(1.68339e-12 6.48906e-13 0)
(1.80145e-12 4.3434e-13 0)
(1.81757e-12 3.01499e-13 0)
(1.875e-12 3.41034e-13 0)
(1.98397e-12 4.38257e-13 0)
(1.94543e-12 5.27627e-13 0)
(1.74644e-12 5.12809e-13 0)
(1.82954e-12 4.85366e-13 0)
(2.05391e-12 5.25795e-13 0)
(1.6871e-12 3.76016e-13 0)
(1.10094e-12 2.68822e-13 0)
(4.8097e-13 2.0732e-13 0)
(-2.35077e-13 1.86364e-13 0)
(-8.86851e-13 3.69371e-13 0)
(-1.64589e-12 4.90352e-13 0)
(-2.13699e-12 5.57323e-13 0)
(-3.18221e-13 7.61109e-13 0)
(-1.33598e-13 8.42879e-13 0)
(5.61008e-14 7.65396e-13 0)
(1.71561e-13 7.43588e-13 0)
(1.74506e-13 6.04197e-13 0)
(2.00405e-14 5.13445e-13 0)
(-2.40299e-13 3.79872e-13 0)
(-4.51421e-13 3.38048e-13 0)
(-5.47038e-13 2.69132e-13 0)
(-3.53963e-13 3.58074e-13 0)
(-4.47222e-14 4.50203e-13 0)
(3.38242e-13 4.22132e-13 0)
(4.24488e-13 3.64202e-13 0)
(-1.93958e-14 3.98466e-13 0)
(-2.06587e-13 4.54117e-13 0)
(-3.0582e-15 5.74449e-13 0)
(2.93101e-13 6.00388e-13 0)
(3.11921e-13 6.36186e-13 0)
(7.20181e-14 7.05454e-13 0)
(5.82003e-14 6.75282e-13 0)
(1.87408e-13 7.97917e-13 0)
(3.0544e-13 8.13874e-13 0)
(2.55269e-13 8.78052e-13 0)
(-5.61444e-14 8.23357e-13 0)
(-3.93562e-13 7.72158e-13 0)
(-2.76889e-13 9.19722e-13 0)
(2.12738e-13 9.18052e-13 0)
(5.67504e-13 8.64004e-13 0)
(5.75379e-13 6.86249e-13 0)
(2.63134e-13 7.56467e-13 0)
(-1.19533e-13 6.99463e-13 0)
(-3.5409e-13 7.78845e-13 0)
(-2.87912e-13 7.39568e-13 0)
(-2.32862e-13 6.95837e-13 0)
(-1.26501e-13 6.80966e-13 0)
(-7.91839e-14 7.01801e-13 0)
(-1.43834e-13 7.57924e-13 0)
(-3.03623e-13 6.68164e-13 0)
(-4.94312e-13 6.37297e-13 0)
(-5.91359e-13 5.47848e-13 0)
(-5.22839e-13 6.73681e-13 0)
(-3.67929e-13 6.53724e-13 0)
(-2.02428e-13 7.14118e-13 0)
(1.41702e-13 9.47324e-13 0)
(5.21173e-13 1.01672e-12 0)
(4.958e-13 9.91745e-13 0)
(2.00334e-13 8.26591e-13 0)
(1.23183e-13 8.13031e-13 0)
(1.74261e-13 8.01079e-13 0)
(8.86026e-14 9.35112e-13 0)
(3.01341e-13 9.58485e-13 0)
(4.1451e-13 1.03082e-12 0)
(3.38834e-13 9.02349e-13 0)
(1.43838e-13 6.91401e-13 0)
(4.42275e-14 5.54171e-13 0)
(1.04741e-13 5.79608e-13 0)
(-8.84573e-14 4.91807e-13 0)
(-4.69977e-13 4.91821e-13 0)
(-5.75862e-13 5.27169e-13 0)
(-2.49426e-13 5.34453e-13 0)
(-6.07201e-14 3.83419e-13 0)
(1.47061e-13 4.89773e-13 0)
(3.17134e-13 4.17053e-13 0)
(3.22873e-13 4.52194e-13 0)
(1.39387e-13 3.95207e-13 0)
(-5.92556e-14 4.8549e-13 0)
(-7.53069e-14 3.81318e-13 0)
(-3.63871e-13 4.51785e-13 0)
(-5.23166e-13 6.39573e-13 0)
(-2.99064e-13 7.04261e-13 0)
(-1.52434e-13 6.54055e-13 0)
(-8.89265e-14 5.92123e-13 0)
(2.79788e-14 5.57185e-13 0)
(1.137e-15 4.23538e-13 0)
(-2.69436e-14 5.55458e-13 0)
(1.00584e-13 6.45778e-13 0)
(2.22699e-13 5.9111e-13 0)
(3.34102e-13 5.95635e-13 0)
(1.85962e-13 5.52479e-13 0)
(5.00162e-14 6.42314e-13 0)
(-1.76384e-15 6.18975e-13 0)
(-1.47812e-13 5.82866e-13 0)
(-1.07685e-13 5.43723e-13 0)
(3.91798e-14 6.84995e-13 0)
(4.25747e-13 7.02763e-13 0)
(4.57135e-13 6.16792e-13 0)
(2.46269e-13 6.87771e-13 0)
(2.07371e-14 6.08924e-13 0)
(-1.81621e-13 6.06007e-13 0)
(-8.75458e-14 5.52434e-13 0)
(1.09897e-13 5.49769e-13 0)
(1.39295e-13 5.76146e-13 0)
(-7.45557e-14 6.24246e-13 0)
(-1.29073e-13 8.17969e-13 0)
(-7.25831e-14 7.26718e-13 0)
(-3.70122e-14 6.54455e-13 0)
(-1.32235e-13 5.42459e-13 0)
(-2.02135e-13 4.61546e-13 0)
(4.47151e-14 4.95719e-13 0)
(-1.86961e-14 5.18338e-13 0)
(1.85078e-14 7.01771e-13 0)
(2.90068e-13 6.92904e-13 0)
(5.34995e-13 7.37347e-13 0)
(5.90785e-13 6.12939e-13 0)
(3.91278e-13 5.54569e-13 0)
(2.05281e-13 4.4577e-13 0)
(-1.15874e-13 4.59477e-13 0)
(-3.03691e-13 5.5677e-13 0)
(-2.94432e-13 5.64754e-13 0)
(-1.92984e-13 5.02192e-13 0)
(-1.10269e-13 3.89341e-13 0)
(-1.35828e-13 3.80597e-13 0)
(-2.51098e-13 3.19831e-13 0)
(-3.61122e-13 3.53532e-13 0)
(-4.22099e-13 2.24219e-13 0)
(-3.44374e-13 3.03105e-13 0)
(-2.06657e-13 3.31753e-13 0)
(-2.27776e-13 5.25258e-13 0)
(-2.46918e-14 6.91682e-13 0)
(2.04355e-13 7.82905e-13 0)
(4.98807e-13 7.4436e-13 0)
(4.38632e-13 6.94092e-13 0)
(-2.54947e-14 7.96265e-13 0)
(-3.35744e-15 6.97273e-13 0)
(-1.54039e-13 7.58845e-13 0)
(-2.6128e-13 8.77519e-13 0)
(8.06436e-15 8.45417e-13 0)
(1.35028e-13 8.49393e-13 0)
(3.04255e-13 8.57496e-13 0)
(4.05891e-13 6.92544e-13 0)
(2.41161e-13 7.00965e-13 0)
(-5.29021e-14 7.80582e-13 0)
(-1.54672e-13 8.23893e-13 0)
(-4.32142e-14 7.5519e-13 0)
(2.63857e-13 7.21091e-13 0)
(3.50208e-13 8.52738e-13 0)
(2.64244e-13 9.62838e-13 0)
(3.26724e-13 9.00077e-13 0)
(1.97419e-13 6.28418e-13 0)
(2.90391e-13 7.47383e-13 0)
(5.7546e-13 7.27304e-13 0)
(8.398e-13 5.166e-13 0)
(1.02892e-12 7.36967e-13 0)
(1.02307e-12 7.88465e-13 0)
(1.08316e-12 7.126e-13 0)
(1.15751e-12 5.49057e-13 0)
(1.15144e-12 4.38193e-13 0)
(1.15197e-12 5.70287e-13 0)
(1.27073e-12 8.30535e-13 0)
(1.53573e-12 9.57732e-13 0)
(1.59516e-12 7.85289e-13 0)
(1.55822e-12 6.95676e-13 0)
(1.62489e-12 7.57967e-13 0)
(1.78141e-12 6.73208e-13 0)
(1.94795e-12 6.07262e-13 0)
(1.8987e-12 3.88556e-13 0)
(1.77412e-12 2.99701e-13 0)
(1.80203e-12 3.42962e-13 0)
(1.93637e-12 4.03298e-13 0)
(1.93149e-12 4.31386e-13 0)
(1.52672e-12 3.03208e-13 0)
(1.00344e-12 3.06095e-13 0)
(4.61093e-13 2.66367e-13 0)
(-2.02975e-13 2.12251e-13 0)
(-8.77782e-13 3.54846e-13 0)
(-1.47484e-12 6.37269e-13 0)
(-2.20315e-12 5.70652e-13 0)
(-4.98838e-14 7.45425e-13 0)
(-9.90703e-14 8.26294e-13 0)
(2.56045e-14 7.6353e-13 0)
(1.02137e-13 8.20475e-13 0)
(-1.60909e-14 7.59216e-13 0)
(-1.5895e-13 5.68301e-13 0)
(-2.69095e-13 3.89875e-13 0)
(-3.91061e-13 3.28209e-13 0)
(-4.34293e-13 2.46204e-13 0)
(-2.76059e-13 2.82574e-13 0)
(-9.35916e-15 3.17006e-13 0)
(2.15254e-13 3.52735e-13 0)
(2.77074e-13 2.12676e-13 0)
(1.19408e-13 2.90251e-13 0)
(-1.09806e-14 4.46622e-13 0)
(5.67984e-14 7.03209e-13 0)
(1.84348e-13 7.11244e-13 0)
(2.05275e-13 4.24251e-13 0)
(1.41811e-13 4.02114e-13 0)
(1.94614e-13 6.00407e-13 0)
(2.79642e-13 6.35114e-13 0)
(1.48369e-13 5.90556e-13 0)
(8.81631e-14 5.11839e-13 0)
(-2.07577e-14 5.55405e-13 0)
(-1.35738e-13 6.03695e-13 0)
(-2.64552e-14 8.7708e-13 0)
(1.92015e-13 8.37254e-13 0)
(2.88249e-13 7.43685e-13 0)
(3.66755e-13 6.03785e-13 0)
(2.7135e-13 4.97051e-13 0)
(7.49734e-14 4.36978e-13 0)
(-1.42578e-13 5.27919e-13 0)
(-2.69155e-13 5.99868e-13 0)
(-3.64485e-13 6.1841e-13 0)
(-2.38579e-13 6.76834e-13 0)
(-1.46291e-13 6.32368e-13 0)
(-2.07704e-13 6.08692e-13 0)
(-3.24198e-13 5.21808e-13 0)
(-4.36713e-13 5.38483e-13 0)
(-4.40555e-13 4.54688e-13 0)
(-3.52778e-13 5.74826e-13 0)
(-2.75572e-13 6.28052e-13 0)
(-2.16253e-14 7.87348e-13 0)
(2.54524e-13 8.29523e-13 0)
(2.92586e-13 7.619e-13 0)
(3.52063e-13 5.97504e-13 0)
(2.72181e-13 7.24389e-13 0)
(2.21705e-13 9.12438e-13 0)
(1.62781e-13 8.57566e-13 0)
(-3.11409e-14 8.49131e-13 0)
(1.23661e-13 8.69418e-13 0)
(3.02128e-13 6.3414e-13 0)
(2.74957e-13 4.95532e-13 0)
(7.34276e-14 4.32299e-13 0)
(-6.86233e-14 5.21904e-13 0)
(-1.2919e-13 3.87551e-13 0)
(-1.82496e-13 2.86144e-13 0)
(-2.83236e-13 3.62633e-13 0)
(-4.38544e-13 5.71473e-13 0)
(-2.66025e-13 6.16999e-13 0)
(-6.612e-14 4.85544e-13 0)
(1.0316e-13 5.32985e-13 0)
(2.41286e-13 3.56516e-13 0)
(2.59883e-13 2.96318e-13 0)
(1.37109e-13 2.37371e-13 0)
(2.35236e-14 3.04376e-13 0)
(1.02509e-14 3.40337e-13 0)
(-1.53479e-13 3.86285e-13 0)
(-2.53129e-13 6.5235e-13 0)
(-2.84528e-13 6.75135e-13 0)
(-2.88946e-13 6.51859e-13 0)
(-1.41233e-13 5.50736e-13 0)
(1.02653e-14 5.502e-13 0)
(4.77603e-14 4.98348e-13 0)
(8.48519e-14 5.78622e-13 0)
(2.99525e-14 6.68143e-13 0)
(7.01922e-14 6.94276e-13 0)
(1.98278e-13 6.36899e-13 0)
(1.62384e-13 5.02166e-13 0)
(2.24561e-14 4.97001e-13 0)
(-1.52353e-13 4.92279e-13 0)
(-8.51995e-14 5.04264e-13 0)
(-8.61509e-18 5.53919e-13 0)
(1.05937e-13 6.46967e-13 0)
(2.8854e-13 5.95516e-13 0)
(3.32959e-13 3.37041e-13 0)
(2.79281e-13 4.91573e-13 0)
(-5.38043e-14 4.93068e-13 0)
(-9.97461e-14 4.68059e-13 0)
(-5.70894e-14 4.70883e-13 0)
(2.71374e-14 4.42095e-13 0)
(1.32199e-13 3.52894e-13 0)
(2.1236e-15 3.34984e-13 0)
(-9.48656e-14 4.30802e-13 0)
(-1.45785e-13 4.09442e-13 0)
(-1.0773e-13 4.89422e-13 0)
(-1.45269e-13 4.21469e-13 0)
(-1.21583e-13 3.17012e-13 0)
(1.91178e-14 3.67154e-13 0)
(1.16865e-13 3.06749e-13 0)
(1.49168e-13 5.88842e-13 0)
(3.34002e-13 6.35055e-13 0)
(4.86174e-13 6.57987e-13 0)
(4.72146e-13 5.21169e-13 0)
(2.57112e-13 5.50086e-13 0)
(5.12308e-14 4.09734e-13 0)
(-1.91711e-14 3.60199e-13 0)
(-1.70819e-13 3.86581e-13 0)
(-3.78912e-13 4.53611e-13 0)
(-3.24076e-13 4.21325e-13 0)
(-2.50254e-13 2.42273e-13 0)
(-1.91479e-13 -1.2095e-14 0)
(-2.08656e-13 -4.60246e-14 0)
(-2.9043e-13 -7.37723e-14 0)
(-2.78733e-13 9.16132e-16 0)
(-8.35763e-14 2.27687e-13 0)
(4.51926e-14 4.08982e-13 0)
(-5.61849e-14 5.96196e-13 0)
(-2.60311e-14 6.97583e-13 0)
(1.29156e-13 7.06271e-13 0)
(3.23237e-13 7.75415e-13 0)
(3.59186e-13 5.96104e-13 0)
(1.68169e-13 5.99293e-13 0)
(5.1354e-14 7.68415e-13 0)
(1.61847e-14 7.16673e-13 0)
(-6.9677e-14 9.62951e-13 0)
(7.44529e-14 1.00104e-12 0)
(1.3861e-13 8.81259e-13 0)
(1.9285e-13 8.51604e-13 0)
(1.70293e-13 7.66614e-13 0)
(1.76999e-13 6.4519e-13 0)
(8.24732e-14 5.79451e-13 0)
(-1.12279e-13 6.14874e-13 0)
(-8.24217e-14 5.72488e-13 0)
(3.5156e-13 6.41779e-13 0)
(5.3563e-13 7.1844e-13 0)
(3.98465e-13 8.09534e-13 0)
(1.55248e-13 8.65364e-13 0)
(1.56564e-13 8.29321e-13 0)
(3.56194e-13 7.53359e-13 0)
(3.36104e-13 6.31661e-13 0)
(7.19766e-13 5.70755e-13 0)
(1.00188e-12 3.64911e-13 0)
(9.46917e-13 2.11858e-13 0)
(9.91252e-13 2.85044e-13 0)
(9.59876e-13 2.9457e-13 0)
(1.0959e-12 2.22666e-13 0)
(1.44377e-12 3.88402e-13 0)
(1.59393e-12 7.59212e-13 0)
(1.4587e-12 8.62613e-13 0)
(1.38985e-12 7.69229e-13 0)
(1.61812e-12 7.0965e-13 0)
(1.76706e-12 6.97033e-13 0)
(1.75833e-12 7.38027e-13 0)
(1.62929e-12 5.36567e-13 0)
(1.65926e-12 2.23769e-13 0)
(1.87676e-12 1.37261e-13 0)
(1.80785e-12 1.63902e-13 0)
(1.84353e-12 1.51303e-13 0)
(1.82767e-12 1.8569e-13 0)
(1.50868e-12 2.14098e-13 0)
(1.09357e-12 1.95899e-13 0)
(4.0819e-13 2.2778e-13 0)
(-1.94632e-13 1.69193e-13 0)
(-7.60647e-13 3.40539e-13 0)
(-1.36825e-12 7.17488e-13 0)
(-2.16247e-12 7.06089e-13 0)
(4.26997e-14 4.66132e-13 0)
(-6.79e-14 4.64428e-13 0)
(9.6175e-14 4.46924e-13 0)
(2.43678e-13 4.26845e-13 0)
(-4.09301e-14 4.89355e-13 0)
(-2.6292e-13 3.57352e-13 0)
(-4.73588e-13 3.25394e-13 0)
(-5.71019e-13 2.05272e-13 0)
(-5.08434e-13 8.85027e-14 0)
(-2.36769e-13 1.20331e-13 0)
(2.58869e-14 9.53068e-14 0)
(2.10968e-13 1.76725e-13 0)
(3.33839e-13 1.7284e-13 0)
(1.34012e-13 1.92104e-13 0)
(1.54747e-13 3.35226e-13 0)
(2.31687e-13 5.04269e-13 0)
(-1.50624e-14 4.91132e-13 0)
(5.47513e-14 3.01486e-13 0)
(3.35355e-13 2.67447e-13 0)
(3.48076e-13 3.9268e-13 0)
(1.65533e-13 2.9623e-13 0)
(1.72081e-13 1.45229e-13 0)
(1.16772e-13 1.89983e-13 0)
(-2.70226e-14 3.05296e-13 0)
(-5.50928e-14 2.92606e-13 0)
(-1.2234e-14 4.861e-13 0)
(1.25688e-13 4.64512e-13 0)
(3.6423e-13 4.05804e-13 0)
(3.60014e-13 3.52777e-13 0)
(1.79127e-13 1.27874e-13 0)
(-6.95818e-14 1.57769e-13 0)
(-2.95744e-13 8.3304e-14 0)
(-2.83442e-13 1.56402e-13 0)
(-1.45076e-13 2.94426e-13 0)
(-9.09019e-14 5.32872e-13 0)
(-1.02415e-13 5.17563e-13 0)
(-1.30439e-13 5.65905e-13 0)
(-3.40812e-13 4.85577e-13 0)
(-5.97837e-13 3.92081e-13 0)
(-5.60204e-13 2.6433e-13 0)
(-2.94368e-13 2.42029e-13 0)
(-8.57991e-14 3.10651e-13 0)
(-2.56262e-14 4.53629e-13 0)
(9.46881e-14 4.05441e-13 0)
(2.72269e-13 3.53348e-13 0)
(4.69516e-13 3.32316e-13 0)
(4.34018e-13 4.76662e-13 0)
(1.76607e-13 5.77026e-13 0)
(6.45518e-14 5.34034e-13 0)
(6.53012e-14 5.17785e-13 0)
(9.03714e-14 5.44528e-13 0)
(1.38087e-13 3.0451e-13 0)
(2.63442e-13 2.39396e-13 0)
(1.81262e-13 1.20149e-13 0)
(-9.21377e-14 1.08133e-13 0)
(-1.5492e-13 2.26045e-14 0)
(-2.17397e-13 2.21753e-13 0)
(-2.55102e-13 1.82794e-13 0)
(-3.14198e-13 4.13857e-13 0)
(-2.87851e-13 5.3163e-13 0)
(-1.47448e-13 4.01241e-13 0)
(9.60588e-15 4.30244e-13 0)
(1.40336e-13 3.85135e-13 0)
(1.98663e-13 2.32319e-13 0)
(1.32094e-13 1.90063e-13 0)
(8.69569e-15 2.53935e-13 0)
(-3.94017e-14 3.16934e-13 0)
(-5.41887e-14 2.98528e-13 0)
(-1.93122e-13 3.29896e-13 0)
(-2.55352e-13 1.93236e-13 0)
(-3.20695e-13 2.2331e-13 0)
(-2.14617e-13 2.84661e-13 0)
(-1.89349e-14 2.1123e-13 0)
(6.32587e-14 1.49796e-13 0)
(1.19316e-13 1.73362e-13 0)
(6.91364e-14 2.28759e-13 0)
(1.20338e-13 3.97676e-13 0)
(2.00645e-13 4.29566e-13 0)
(1.03896e-13 2.98404e-13 0)
(9.41057e-14 1.19211e-13 0)
(-1.74802e-14 2.80347e-13 0)
(-1.97498e-13 3.96929e-13 0)
(-3.69027e-14 4.04021e-13 0)
(4.97828e-14 4.9687e-13 0)
(1.62762e-13 3.57371e-13 0)
(3.1548e-13 1.45488e-13 0)
(3.96588e-13 4.11856e-14 0)
(-1.1081e-14 9.07885e-14 0)
(-1.4736e-13 1.91968e-13 0)
(-1.19183e-13 2.56071e-13 0)
(4.94034e-14 2.56949e-13 0)
(4.48209e-14 1.30193e-13 0)
(-4.89603e-14 7.91072e-14 0)
(-9.62268e-14 1.43987e-13 0)
(3.3774e-14 2.12563e-13 0)
(1.90599e-14 3.1134e-13 0)
(-3.13959e-13 3.26709e-13 0)
(-2.63474e-13 2.05032e-13 0)
(6.23625e-14 1.97203e-13 0)
(3.06711e-13 2.89994e-13 0)
(3.62402e-13 4.71442e-13 0)
(3.43984e-13 5.68296e-13 0)
(4.16111e-13 4.48004e-13 0)
(4.42968e-13 2.31082e-13 0)
(2.59821e-13 1.3149e-13 0)
(8.35856e-14 2.65441e-13 0)
(-1.49415e-13 2.56011e-13 0)
(-2.83416e-13 1.92397e-13 0)
(-2.80303e-13 1.62783e-13 0)
(-3.39194e-13 2.95546e-13 0)
(-4.4244e-13 2.54952e-13 0)
(-3.78209e-13 1.56603e-13 0)
(-3.32367e-13 1.27806e-13 0)
(-3.72694e-13 -5.84511e-14 0)
(-1.05874e-13 -8.84532e-14 0)
(7.51397e-14 5.56156e-14 0)
(1.61674e-13 1.46211e-13 0)
(3.59835e-14 2.63171e-13 0)
(-4.93164e-14 3.76109e-13 0)
(2.2584e-13 2.92808e-13 0)
(4.73936e-13 3.92583e-13 0)
(3.62906e-13 2.99108e-13 0)
(1.30379e-13 2.42548e-13 0)
(2.69888e-15 2.82355e-13 0)
(1.74927e-13 3.25772e-13 0)
(1.09224e-13 4.74566e-13 0)
(-4.75788e-14 5.81824e-13 0)
(5.37928e-14 4.94207e-13 0)
(2.6308e-13 4.1272e-13 0)
(2.06753e-13 4.71806e-13 0)
(5.40676e-14 3.85344e-13 0)
(-9.73144e-14 3.36963e-13 0)
(-1.86111e-13 2.93453e-13 0)
(-5.72291e-15 3.9674e-13 0)
(4.23586e-13 4.50016e-13 0)
(5.03969e-13 2.79846e-13 0)
(4.16764e-13 2.83658e-13 0)
(2.28687e-13 4.24888e-13 0)
(5.24218e-14 5.53181e-13 0)
(1.9247e-13 4.36649e-13 0)
(4.49654e-13 3.65616e-13 0)
(6.37457e-13 4.40814e-13 0)
(7.18496e-13 2.44436e-13 0)
(1.03387e-12 9.88518e-14 0)
(1.21788e-12 2.93645e-14 0)
(1.01517e-12 1.20024e-13 0)
(1.22695e-12 3.09354e-13 0)
(1.65188e-12 4.53562e-13 0)
(1.64819e-12 5.23697e-13 0)
(1.56586e-12 5.01761e-13 0)
(1.5041e-12 5.7397e-13 0)
(1.51567e-12 5.58847e-13 0)
(1.64566e-12 4.08357e-13 0)
(1.63101e-12 3.92007e-13 0)
(1.50552e-12 1.60043e-13 0)
(1.55768e-12 1.33872e-13 0)
(1.70118e-12 -1.67806e-14 0)
(1.77362e-12 3.70064e-14 0)
(1.89746e-12 -1.16843e-14 0)
(1.9463e-12 1.39529e-15 0)
(1.54908e-12 7.84354e-14 0)
(1.0403e-12 3.07124e-14 0)
(4.68063e-13 8.40837e-14 0)
(-1.0565e-13 6.6268e-14 0)
(-5.67838e-13 3.26767e-13 0)
(-1.26614e-12 6.90978e-13 0)
(-1.96551e-12 8.32144e-13 0)
(1.165e-13 3.42163e-13 0)
(-2.11172e-14 3.62135e-13 0)
(-2.35957e-14 4.28361e-13 0)
(6.7464e-14 2.349e-13 0)
(-5.36758e-14 1.8697e-13 0)
(-3.14268e-13 8.84261e-14 0)
(-4.8379e-13 1.66604e-13 0)
(-5.91317e-13 2.55899e-13 0)
(-4.88311e-13 4.18944e-13 0)
(-2.00793e-13 5.01611e-13 0)
(4.00406e-14 4.79841e-13 0)
(1.81487e-13 5.55969e-13 0)
(2.73309e-13 4.24328e-13 0)
(2.75915e-13 2.24535e-13 0)
(2.19105e-13 2.94207e-13 0)
(1.37352e-13 1.1849e-13 0)
(1.77978e-14 5.80741e-14 0)
(4.83399e-14 2.5033e-13 0)
(2.52988e-13 2.53086e-13 0)
(1.9791e-13 9.7885e-14 0)
(-4.35982e-14 5.84363e-14 0)
(7.84401e-14 -1.46736e-14 0)
(2.92142e-13 2.355e-14 0)
(6.31392e-14 6.69042e-14 0)
(9.14545e-14 2.02073e-13 0)
(2.73823e-13 3.49249e-13 0)
(9.20637e-14 3.61524e-13 0)
(1.50631e-13 2.74919e-13 0)
(5.67879e-14 1.14183e-13 0)
(4.37189e-14 -4.37203e-14 0)
(-7.74053e-15 -8.36247e-14 0)
(-1.78184e-13 2.00436e-14 0)
(-6.56244e-14 1.27426e-13 0)
(3.49468e-14 2.92483e-13 0)
(2.83294e-14 2.85613e-13 0)
(-9.86797e-14 3.60385e-13 0)