/*--------------------------------*- C++ -*----------------------------------*\
  =========                 |
  \\      /  F ield         | OpenFOAM: The Open Source CFD Toolbox
   \\    /   O peration     | Website:  https://openfoam.org
    \\  /    A nd           | Version:  13
     \\/     M anipulation  |
\*---------------------------------------------------------------------------*/
FoamFile
{
    format      ascii;
    class       volVectorField;
    location    "0.002";
    object      U;
}
// * * * * * * * * * * * * * * * * * * * * * * * * * * * * * * * * * * * * * //

dimensions      [0 1 -1 0 0 0 0];

internalField   nonuniform List<vector> 
33333
(
(2.96923e-13 5.41984e-13 0)
(9.20127e-14 5.78118e-13 0)
(-6.39563e-14 6.13786e-13 0)
(7.69368e-14 4.18789e-13 0)
(1.23948e-14 1.72354e-13 0)
(-7.7306e-14 1.03056e-13 0)
(5.83165e-14 1.7974e-13 0)
(-4.00512e-14 1.93473e-13 0)
(-1.15911e-13 3.26769e-13 0)
(-1.11434e-13 3.60599e-13 0)
(-1.65172e-13 4.92008e-13 0)
(-2.13748e-13 3.00374e-13 0)
(-3.15588e-13 2.56594e-13 0)
(-1.20106e-13 2.1263e-13 0)
(2.24793e-13 3.22449e-13 0)
(3.80756e-13 3.95458e-13 0)
(4.35836e-13 5.98719e-13 0)
(5.11993e-13 5.5525e-13 0)
(2.73986e-13 2.98938e-13 0)
(5.46423e-14 3.84732e-13 0)
(1.85176e-13 3.16169e-13 0)
(2.22698e-13 4.40506e-13 0)
(3.14166e-13 3.7022e-13 0)
(5.52516e-13 5.41083e-13 0)
(3.92953e-13 3.56617e-13 0)
(2.10493e-13 4.21544e-13 0)
(2.32741e-13 2.18231e-13 0)
(2.38988e-13 3.0119e-13 0)
(3.52204e-13 2.34636e-13 0)
(3.31625e-13 2.04566e-13 0)
(1.60992e-13 3.07444e-13 0)
(6.6469e-14 4.1969e-13 0)
(-2.97852e-14 3.38855e-13 0)
(-3.77881e-14 5.10522e-13 0)
(-4.90292e-14 5.06122e-13 0)
(-7.80488e-14 5.30576e-13 0)
(1.13203e-14 3.22958e-13 0)
(-7.11949e-14 4.04888e-13 0)
(-1.54746e-13 4.06634e-13 0)
(-5.7404e-14 3.27842e-13 0)
(-2.11779e-13 1.95905e-13 0)
(-2.67194e-13 3.71066e-13 0)
(1.16442e-13 3.05501e-13 0)
(1.23473e-14 2.05418e-13 0)
(-8.22159e-14 3.39957e-13 0)
(1.32187e-13 5.07652e-13 0)
(8.14124e-14 6.42101e-13 0)
(1.62791e-13 4.82465e-13 0)
(3.66845e-13 5.50573e-13 0)
(2.12381e-13 3.3477e-13 0)
(4.03556e-14 3.7472e-13 0)
(1.65596e-14 2.08376e-13 0)
(4.13959e-14 3.63807e-13 0)
(-2.81802e-13 1.60945e-13 0)
(-6.09475e-13 3.13289e-13 0)
(-3.20118e-13 2.08449e-13 0)
(-1.78813e-14 2.96342e-13 0)
(-4.74432e-15 3.0837e-13 0)
(-2.72347e-13 4.41469e-13 0)
(-3.84996e-13 4.31849e-13 0)
(-3.19102e-13 4.9877e-13 0)
(-2.10052e-13 3.31243e-13 0)
(-7.7904e-14 4.34886e-13 0)
(-2.60144e-13 2.65405e-13 0)
(-3.1454e-13 5.13885e-13 0)
(-3.50048e-13 4.47956e-13 0)
(-4.24283e-13 6.63832e-13 0)
(-3.61157e-13 7.5287e-13 0)
(-4.82239e-13 6.92607e-13 0)
(-4.1534e-13 6.06223e-13 0)
(-3.32681e-13 3.98499e-13 0)
(-1.86329e-13 2.27365e-13 0)
(-1.52587e-13 1.58276e-13 0)
(-1.12451e-13 2.35469e-13 0)
(-4.38125e-14 2.68439e-13 0)
(1.46429e-13 3.02738e-13 0)
(-1.60896e-14 1.83046e-13 0)
(-2.43588e-13 3.28745e-13 0)
(-1.5016e-13 3.46115e-13 0)
(2.92752e-14 4.0525e-13 0)
(-1.0404e-13 3.08114e-13 0)
(-2.87219e-13 5.00524e-13 0)
(7.17546e-14 3.88911e-13 0)
(1.02955e-13 5.77564e-14 0)
(-2.49862e-13 2.13212e-15 0)
(-2.61181e-13 2.10964e-13 0)
(6.0827e-15 3.17011e-13 0)
(-1.11239e-13 2.54205e-13 0)
(-2.0986e-13 3.40377e-13 0)
(-1.45054e-13 4.93713e-13 0)
(1.91913e-14 4.39296e-13 0)
(8.89531e-14 4.17621e-13 0)
(5.18988e-14 3.74738e-13 0)
(1.55305e-14 4.48974e-13 0)
(6.63335e-14 4.26033e-13 0)
(1.68792e-13 4.43204e-13 0)
(2.42985e-13 3.65645e-13 0)
(8.05828e-14 2.22013e-13 0)
(-3.61907e-14 2.72994e-13 0)
(-2.01779e-14 2.83323e-13 0)
(1.2049e-13 2.43617e-13 0)
(-4.03866e-14 7.44025e-14 0)
(-2.15755e-13 1.65165e-13 0)
(-3.2571e-14 3.2632e-13 0)
(1.15352e-13 5.99918e-13 0)
(9.97387e-14 5.93798e-13 0)
(-1.34338e-13 4.99046e-13 0)
(-1.71877e-13 5.0513e-13 0)
(-1.92442e-13 5.36179e-13 0)
(-2.93399e-13 4.41917e-13 0)
(-1.72119e-13 3.88742e-13 0)
(-1.24331e-13 3.53062e-13 0)
(-2.3179e-13 3.57048e-13 0)
(-2.33592e-13 3.91162e-13 0)
(-2.06419e-13 3.76812e-13 0)
(-1.90377e-13 4.11496e-13 0)
(-7.2845e-14 4.09403e-13 0)
(8.61407e-14 4.32428e-13 0)
(5.43619e-14 4.75894e-13 0)
(-4.84203e-14 4.63732e-13 0)
(2.33353e-13 4.07181e-13 0)
(2.39641e-13 2.47373e-13 0)
(-1.04241e-14 1.81427e-13 0)
(-2.56055e-14 3.32412e-13 0)
(3.91898e-14 3.50302e-13 0)
(1.55686e-13 3.6278e-13 0)
(8.17583e-15 2.1744e-13 0)
(-2.7379e-13 3.80965e-13 0)
(-1.51776e-13 3.11313e-13 0)
(1.04592e-13 3.07621e-13 0)
(3.43569e-14 1.98815e-13 0)
(-9.59777e-14 2.89861e-13 0)
(2.30629e-13 2.80741e-13 0)
(1.32243e-13 3.33076e-13 0)
(-2.32033e-13 3.66173e-13 0)
(-1.96494e-13 3.94808e-13 0)
(-1.79399e-13 3.24273e-13 0)
(-3.61743e-13 3.09736e-13 0)
(-2.00722e-13 2.72601e-13 0)
(-1.95856e-13 1.936e-13 0)
(-2.06773e-13 2.87845e-13 0)
(-1.04701e-13 3.10218e-13 0)
(-1.09786e-13 2.71743e-13 0)
(-2.37106e-13 2.42623e-13 0)
(-2.68681e-13 3.39162e-13 0)
(8.25382e-14 3.509e-13 0)
(2.34647e-13 2.47086e-13 0)
(1.06395e-13 1.8811e-13 0)
(3.34337e-14 3.25111e-13 0)
(-6.81067e-14 3.91238e-13 0)
(-2.24075e-14 4.55524e-13 0)
(-2.54769e-14 3.2549e-13 0)
(-2.05081e-13 4.32769e-13 0)
(-2.59424e-14 3.87374e-13 0)
(1.60127e-13 4.8255e-13 0)
(-1.84032e-14 2.89469e-13 0)
(-8.76129e-14 3.22785e-13 0)
(2.94707e-13 3.02676e-13 0)
(3.116e-13 1.27375e-13 0)
(-4.40504e-14 7.29434e-14 0)
(-6.30195e-14 2.03326e-13 0)
(3.45716e-13 2.85017e-13 0)
(5.01389e-13 2.46265e-13 0)
(5.68102e-13 3.15239e-13 0)
(4.48756e-13 3.53712e-13 0)
(3.77405e-13 4.33435e-13 0)
(3.63949e-13 4.2687e-13 0)
(5.17604e-13 8.80481e-13 0)
(1.58337e-13 9.77984e-13 0)
(-2.46443e-13 8.09131e-13 0)
(-2.39104e-13 8.56113e-13 0)
(-1.85688e-13 5.82281e-13 0)
(-7.44659e-14 6.7315e-13 0)
(-2.98187e-14 4.07103e-13 0)
(4.81641e-14 3.04386e-13 0)
(2.64853e-14 5.14265e-13 0)
(7.86283e-14 4.66454e-13 0)
(-1.40286e-13 7.27195e-13 0)
(-4.18545e-13 7.3083e-13 0)
(-3.35034e-13 6.00986e-13 0)
(-6.64603e-14 6.26624e-13 0)
(1.87367e-13 6.55388e-13 0)
(5.33589e-13 7.28503e-13 0)
(6.40602e-13 7.16142e-13 0)
(4.17477e-13 6.41148e-13 0)
(1.51559e-13 7.20329e-13 0)
(2.01947e-14 6.92982e-13 0)
(2.01423e-13 8.22542e-13 0)
(2.49902e-13 7.19297e-13 0)
(4.04561e-13 7.51883e-13 0)
(5.13533e-13 6.1175e-13 0)
(3.27292e-13 6.51346e-13 0)
(1.05913e-13 5.50063e-13 0)
(1.22848e-13 4.2869e-13 0)
(2.16273e-13 3.6928e-13 0)
(2.25667e-13 3.47022e-13 0)
(4.14443e-13 2.58975e-13 0)
(3.54342e-13 9.89794e-14 0)
(6.80746e-14 1.76006e-13 0)
(8.58446e-14 3.48078e-13 0)
(2.42861e-13 4.83126e-13 0)
(8.75182e-14 7.57174e-13 0)
(-2.15372e-13 7.0955e-13 0)
(-6.81637e-14 6.96624e-13 0)
(-1.70601e-15 5.81583e-13 0)
(-2.54443e-13 6.32477e-13 0)
(-3.46795e-13 5.73919e-13 0)
(-2.27945e-13 4.08842e-13 0)
(-2.0432e-13 5.23031e-13 0)
(-7.56519e-15 5.53426e-13 0)
(4.92273e-14 6.49814e-13 0)
(1.35612e-13 6.14776e-13 0)
(3.02484e-13 7.14729e-13 0)
(4.16948e-14 7.31165e-13 0)
(1.04e-13 6.62435e-13 0)
(2.61422e-13 6.43828e-13 0)
(1.23195e-13 6.13866e-13 0)
(-4.16692e-14 4.37121e-13 0)
(3.42685e-14 4.55682e-13 0)
(-7.52949e-14 4.63751e-13 0)
(-4.02752e-13 4.66607e-13 0)
(-4.87738e-13 4.15787e-13 0)
(-2.32356e-13 5.48781e-13 0)
(-1.29334e-14 7.8896e-13 0)
(5.52226e-14 6.71025e-13 0)
(-1.2179e-13 7.02185e-13 0)
(-2.87036e-13 8.88469e-13 0)
(-4.00284e-13 7.84753e-13 0)
(-3.1398e-13 6.76735e-13 0)
(-2.44481e-13 5.95744e-13 0)
(-3.29781e-13 6.23424e-13 0)
(-4.4454e-13 4.55261e-13 0)
(-3.80634e-13 3.39428e-13 0)
(-2.74216e-13 4.83063e-13 0)
(-4.17071e-13 6.24371e-13 0)
(-5.98356e-13 5.30214e-13 0)
(-5.53062e-13 6.72139e-13 0)
(-5.08044e-13 6.82454e-13 0)
(-3.66579e-13 6.19726e-13 0)
(-1.68697e-13 5.545e-13 0)
(-3.11359e-14 5.15563e-13 0)
(1.12786e-13 3.64994e-13 0)
(1.42339e-13 4.44982e-13 0)
(9.69754e-14 3.51658e-13 0)
(-9.19326e-14 4.50335e-13 0)
(-1.2977e-13 4.08902e-13 0)
(-1.02934e-13 4.34312e-13 0)
(-7.46732e-14 2.66391e-13 0)
(-1.88602e-13 3.85433e-13 0)
(-1.45828e-13 4.37657e-13 0)
(-9.54896e-14 3.15382e-13 0)
(-1.36786e-13 3.10255e-13 0)
(-7.70103e-14 7.44909e-13 0)
(-6.01088e-14 9.20136e-13 0)
(-1.52209e-13 8.14785e-13 0)
(-4.31101e-14 7.75973e-13 0)
(3.08453e-14 8.98915e-13 0)
(3.83356e-14 8.1017e-13 0)
(3.10678e-14 7.81765e-13 0)
(9.65845e-14 7.20582e-13 0)
(1.32599e-13 7.97993e-13 0)
(9.55836e-14 9.52886e-13 0)
(-1.46713e-14 1.00617e-12 0)
(-1.44382e-13 6.18169e-13 0)
(-1.32277e-13 4.28642e-13 0)
(3.87066e-14 4.58866e-13 0)
(1.72476e-13 3.97644e-13 0)
(1.23262e-13 6.82118e-13 0)
(-3.77555e-14 5.76253e-13 0)
(-8.31283e-14 5.29849e-13 0)
(2.11152e-13 5.07131e-13 0)
(2.102e-13 6.4089e-13 0)
(-9.92746e-14 4.73772e-13 0)
(-2.18378e-13 3.89005e-13 0)
(-7.60272e-14 4.39741e-13 0)
(-2.38577e-13 3.97816e-13 0)
(-3.584e-13 2.98372e-13 0)
(-1.10875e-13 4.63206e-13 0)
(-7.99338e-14 4.83504e-13 0)
(-2.03893e-13 5.09276e-13 0)
(-2.93499e-13 5.50146e-13 0)
(-2.61334e-13 5.54729e-13 0)
(-8.616e-14 5.29744e-13 0)
(3.24818e-14 6.87603e-13 0)
(1.44452e-13 6.45143e-13 0)
(8.63355e-14 6.97266e-13 0)
(-1.6444e-13 8.08426e-13 0)
(-6.73853e-16 5.44684e-13 0)
(8.34397e-14 3.74669e-13 0)
(4.71288e-14 4.22428e-13 0)
(1.42036e-13 4.83929e-13 0)
(2.24141e-13 4.75422e-13 0)
(1.20506e-13 7.75721e-13 0)
(4.26297e-14 6.08622e-13 0)
(-2.03008e-13 6.56577e-13 0)
(-2.31281e-13 6.07826e-13 0)
(-3.72886e-14 7.8667e-13 0)
(-8.4069e-14 6.72113e-13 0)
(1.60155e-15 7.54483e-13 0)
(2.94791e-13 6.94306e-13 0)
(1.73671e-13 3.8624e-13 0)
(-2.69293e-13 3.54485e-13 0)
(-3.06109e-13 4.77859e-13 0)
(-2.98057e-13 4.21405e-13 0)
(-4.50544e-13 4.33731e-13 0)
(-4.05059e-13 3.4831e-13 0)
(-2.12325e-13 2.66883e-13 0)
(-4.86639e-14 4.9273e-13 0)
(-1.67025e-13 6.31572e-13 0)
(-2.64784e-13 6.85e-13 0)
(-1.41098e-13 7.68109e-13 0)
(-1.39882e-13 8.58282e-13 0)
(-1.80967e-13 6.51686e-13 0)
(-2.59297e-14 3.90303e-13 0)
(1.08771e-13 2.37613e-13 0)
(1.53873e-13 3.18038e-13 0)
(9.20199e-14 2.14916e-13 0)
(2.79785e-14 3.97143e-13 0)
(8.72126e-14 6.06821e-13 0)
(-4.13448e-14 6.64214e-13 0)
(4.35526e-15 6.51093e-13 0)
(-2.30903e-14 8.02884e-13 0)
(-2.73111e-13 6.43331e-13 0)
(-7.28116e-14 7.68647e-13 0)
(1.53891e-13 5.39994e-13 0)
(2.0675e-13 1.89131e-13 0)
(1.27169e-13 1.47171e-13 0)
(1.84275e-13 4.36996e-13 0)
(4.11223e-13 5.43506e-13 0)
(4.04004e-13 5.66862e-13 0)
(4.72411e-13 5.04087e-13 0)
(5.03529e-13 3.89783e-13 0)
(5.14078e-13 3.20304e-13 0)
(4.2439e-13 2.83678e-13 0)
(3.89578e-13 9.68933e-13 0)
(5.86689e-14 6.56347e-13 0)
(-1.58333e-13 5.74044e-13 0)
(-1.97322e-13 6.50431e-13 0)
(-1.4198e-13 6.90985e-13 0)
(-9.92714e-14 6.74296e-13 0)
(-2.26304e-13 7.02566e-13 0)
(8.5676e-14 5.29139e-13 0)
(-1.02895e-14 4.36555e-13 0)
(2.66145e-14 4.35432e-13 0)
(4.63784e-15 5.58201e-13 0)
(-2.77575e-13 6.00966e-13 0)
(-2.31441e-13 8.25252e-13 0)
(4.43787e-14 8.78204e-13 0)
(3.49355e-13 8.37272e-13 0)
(4.5925e-13 7.9681e-13 0)
(5.26817e-13 8.63437e-13 0)
(5.03391e-13 8.45515e-13 0)
(2.55275e-13 8.82881e-13 0)
(7.83188e-14 9.40335e-13 0)
(1.60052e-13 9.18433e-13 0)
(1.15541e-13 9.86692e-13 0)
(2.20012e-13 8.48263e-13 0)
(4.63999e-13 5.72458e-13 0)
(2.9754e-13 5.75931e-13 0)
(-1.91089e-14 4.51783e-13 0)
(1.30971e-13 6.03534e-13 0)
(2.8106e-13 5.53378e-13 0)
(3.14198e-13 5.92132e-13 0)
(1.67444e-13 4.59181e-13 0)
(1.26694e-13 1.87319e-13 0)
(2.92323e-13 1.47617e-13 0)
(2.44358e-13 1.40497e-13 0)
(2.90861e-13 9.08717e-14 0)
(1.83891e-13 2.33574e-13 0)
(-1.21988e-13 5.42794e-13 0)
(-3.56471e-14 8.33823e-13 0)
(-1.74677e-13 7.69721e-13 0)
(-2.10912e-13 5.2553e-13 0)
(-2.4692e-13 5.7556e-13 0)
(-3.12827e-13 7.94036e-13 0)
(-1.62124e-13 7.86315e-13 0)
(1.33487e-13 7.25179e-13 0)
(8.66629e-14 5.9569e-13 0)
(1.72742e-14 7.98621e-13 0)
(1.68519e-13 7.24186e-13 0)
(1.36034e-14 7.22973e-13 0)
(1.27469e-13 7.78331e-13 0)
(2.8909e-13 6.42979e-13 0)
(2.95995e-14 4.48924e-13 0)
(-1.09374e-13 3.87832e-13 0)
(2.79045e-14 4.3345e-13 0)
(-1.67232e-14 2.76354e-13 0)
(-3.39077e-13 3.06043e-13 0)
(-4.39744e-13 4.79833e-13 0)
(-4.54047e-14 5.86368e-13 0)
(4.1704e-14 4.96084e-13 0)
(-5.14838e-14 4.94943e-13 0)
(-4.06713e-14 4.75777e-13 0)
(-2.6398e-13 6.09991e-13 0)
(-5.07301e-13 8.10333e-13 0)
(-3.8848e-13 9.35955e-13 0)
(-2.27802e-13 7.56545e-13 0)
(-4.58017e-13 6.80554e-13 0)
(-6.59966e-13 5.16237e-13 0)
(-4.14042e-13 4.4851e-13 0)
(-1.92437e-13 3.767e-13 0)
(-3.54318e-13 4.57838e-13 0)
(-4.6176e-13 6.8141e-13 0)
(-4.34601e-13 7.10421e-13 0)
(-4.62072e-13 5.8537e-13 0)
(-3.65941e-13 7.38809e-13 0)
(-2.30457e-13 7.50712e-13 0)
(-1.71043e-13 8.52294e-13 0)
(4.45791e-14 7.79249e-13 0)
(2.56625e-13 7.51373e-13 0)
(7.44253e-14 7.27718e-13 0)
(-1.68145e-13 7.20553e-13 0)
(-2.04558e-13 7.07811e-13 0)
(-1.68424e-13 6.6569e-13 0)
(-1.68886e-13 6.53792e-13 0)
(-1.70152e-13 6.36674e-13 0)
(3.02509e-15 6.01216e-13 0)
(-3.98492e-15 6.14603e-13 0)
(4.66292e-14 7.24221e-13 0)
(1.53978e-13 7.60511e-13 0)
(-3.97564e-14 9.50061e-13 0)
(-2.54143e-13 1.09533e-12 0)
(-1.52938e-13 1.13064e-12 0)
(-8.57078e-14 9.79059e-13 0)
(-4.7434e-14 1.01645e-12 0)
(3.48737e-14 9.0223e-13 0)
(1.12236e-13 9.44562e-13 0)
(2.50042e-13 1.02077e-12 0)
(2.3824e-13 1.19188e-12 0)
(-1.09146e-13 1.25504e-12 0)
(-3.08616e-13 1.24541e-12 0)
(-1.78139e-13 1.10667e-12 0)
(-4.7525e-14 9.37576e-13 0)
(2.70388e-13 7.91865e-13 0)
(3.36922e-13 8.38494e-13 0)
(-1.25418e-13 7.98294e-13 0)
(-1.9673e-13 5.9158e-13 0)
(6.67996e-14 6.38317e-13 0)
(9.67185e-14 4.9281e-13 0)
(-8.92932e-14 4.89398e-13 0)
(-2.0357e-13 5.0209e-13 0)
(-2.07627e-13 5.39027e-13 0)
(-3.57063e-13 3.9286e-13 0)
(-2.88374e-13 2.11493e-13 0)
(-5.11282e-14 2.42338e-13 0)
(-1.11376e-13 1.43335e-13 0)
(-2.10484e-13 7.67148e-14 0)
(-1.61381e-13 1.20159e-13 0)
(-1.84335e-13 3.65264e-13 0)
(-5.69329e-14 3.98345e-13 0)
(5.23532e-14 4.72221e-13 0)
(1.20596e-13 4.39921e-13 0)
(1.73189e-13 4.80594e-13 0)
(-5.08309e-14 6.92818e-13 0)
(-1.27087e-13 7.64934e-13 0)
(4.4967e-14 7.4922e-13 0)
(7.11603e-15 7.85943e-13 0)
(7.88134e-14 8.62153e-13 0)
(3.74236e-13 7.48304e-13 0)
(3.11056e-13 7.34396e-13 0)
(-6.51882e-14 8.24251e-13 0)
(-3.35055e-13 7.4285e-13 0)
(-1.60971e-13 6.23447e-13 0)
(2.99022e-14 5.05004e-13 0)
(-9.13035e-14 5.20538e-13 0)
(-6.16375e-14 6.32361e-13 0)
(-5.47102e-15 4.93302e-13 0)
(-9.16922e-14 2.67058e-13 0)
(-2.58794e-13 5.71837e-14 0)
(-2.55258e-13 1.79248e-13 0)
(-3.05748e-13 7.27258e-14 0)
(-4.13303e-13 1.80277e-13 0)
(-3.63464e-13 5.62456e-13 0)
(-9.27978e-14 5.26404e-13 0)
(9.552e-14 6.31572e-13 0)
(2.78502e-14 7.76202e-13 0)
(-2.68361e-14 8.66503e-13 0)
(-6.39744e-14 8.79252e-13 0)
(-3.35535e-13 1.02265e-12 0)
(-3.17881e-13 9.55734e-13 0)
(-9.34415e-14 8.63613e-13 0)
(5.04516e-14 6.86848e-13 0)
(5.03001e-14 5.28631e-13 0)
(7.59802e-14 4.77982e-13 0)
(2.75956e-13 5.24379e-13 0)
(2.00996e-13 6.19046e-13 0)
(-9.65495e-14 6.77231e-13 0)
(5.38551e-14 7.37075e-13 0)
(3.90196e-14 6.51115e-13 0)
(-1.68116e-13 6.89698e-13 0)
(-1.60857e-13 8.40037e-13 0)
(-1.30352e-13 6.71233e-13 0)
(7.85369e-14 6.05678e-13 0)
(1.63249e-13 6.18881e-13 0)
(2.63801e-13 7.94762e-13 0)
(5.00967e-13 6.78219e-13 0)
(4.55113e-13 8.59248e-13 0)
(3.88795e-13 8.74507e-13 0)
(3.44313e-13 6.08071e-13 0)
(3.33035e-13 4.80759e-13 0)
(3.57516e-13 3.59797e-13 0)
(1.70445e-13 8.66669e-13 0)
(-1.49923e-13 6.32934e-13 0)
(-2.5571e-13 6.13584e-13 0)
(-1.95346e-13 4.0572e-13 0)
(-8.41566e-14 4.53723e-13 0)
(-2.35653e-14 4.0065e-13 0)
(-1.3309e-13 6.37671e-13 0)
(-7.35259e-14 6.69322e-13 0)
(-5.81489e-14 6.71105e-13 0)
(8.73613e-14 6.07477e-13 0)
(9.99804e-14 5.2708e-13 0)
(-1.21544e-13 8.86947e-13 0)
(-5.77897e-14 1.17754e-12 0)
(6.24444e-14 1.16488e-12 0)
(2.37881e-13 1.07651e-12 0)
(5.36262e-13 1.00458e-12 0)
(6.18338e-13 9.85956e-13 0)
(4.37045e-13 9.65129e-13 0)
(2.54252e-13 1.03439e-12 0)
(5.17323e-14 1.12737e-12 0)
(1.84454e-13 1.07789e-12 0)
(1.13878e-13 1.08615e-12 0)
(1.53632e-14 9.09396e-13 0)
(2.33202e-13 8.37418e-13 0)
(2.07295e-13 7.1838e-13 0)
(7.60736e-14 7.83782e-13 0)
(1.192e-13 9.52565e-13 0)
(1.35749e-13 8.21267e-13 0)
(1.84941e-13 7.09547e-13 0)
(1.06397e-14 6.5956e-13 0)
(4.80688e-14 5.32275e-13 0)
(1.76945e-13 4.24287e-13 0)
(1.32295e-13 2.83596e-13 0)
(3.13595e-13 3.27647e-13 0)
(4.75834e-13 3.5888e-13 0)
(2.97072e-13 5.94419e-13 0)
(6.38939e-14 8.69994e-13 0)
(-2.76632e-13 9.34343e-13 0)
(-3.89025e-13 8.64659e-13 0)
(-1.30856e-13 7.71581e-13 0)
(-1.55495e-13 7.63912e-13 0)
(-2.57083e-13 7.28327e-13 0)
(-9.04125e-14 7.8048e-13 0)
(1.73786e-13 7.18334e-13 0)
(1.77219e-13 9.2412e-13 0)
(1.36392e-13 1.07439e-12 0)
(4.58382e-14 1.03512e-12 0)
(1.51643e-14 8.60159e-13 0)
(-1.27871e-14 5.63545e-13 0)
(-1.06973e-13 4.2804e-13 0)
(-6.31788e-14 4.22867e-13 0)
(-1.05013e-13 5.2349e-13 0)
(-2.32955e-13 3.49128e-13 0)
(-2.33075e-13 2.42322e-13 0)
(-1.92893e-13 4.03094e-13 0)
(-1.1216e-13 4.80785e-13 0)
(-5.28562e-14 4.20365e-13 0)
(3.12283e-14 4.39667e-13 0)
(2.52849e-14 6.14053e-13 0)
(-8.83623e-14 6.65009e-13 0)
(-2.49869e-13 6.90121e-13 0)
(-3.92316e-13 9.0965e-13 0)
(-4.51508e-13 8.15607e-13 0)
(-5.37276e-13 5.03149e-13 0)
(-6.41821e-13 4.54964e-13 0)
(-4.59406e-13 4.80524e-13 0)
(-1.98727e-13 4.76209e-13 0)
(-2.23396e-13 6.39387e-13 0)
(-3.86004e-13 7.40474e-13 0)
(-6.11814e-13 6.01909e-13 0)
(-4.27119e-13 6.52271e-13 0)
(-2.28542e-13 8.95162e-13 0)
(-1.20484e-13 8.85893e-13 0)
(-8.83653e-14 8.0263e-13 0)
(5.44465e-15 8.20785e-13 0)
(1.65993e-13 8.02096e-13 0)
(5.64703e-14 7.69578e-13 0)
(-1.43041e-13 8.42079e-13 0)
(-2.14906e-13 8.21692e-13 0)
(-1.70145e-13 7.97636e-13 0)
(-1.30316e-13 8.55629e-13 0)
(-2.25545e-13 7.63969e-13 0)
(-1.26542e-13 7.70636e-13 0)
(7.03051e-14 9.03269e-13 0)
(-1.01979e-14 8.51866e-13 0)
(1.23624e-13 5.98141e-13 0)
(1.56354e-13 5.45297e-13 0)
(-2.19729e-14 9.63459e-13 0)
(-2.33278e-13 1.20359e-12 0)
(-9.95124e-14 1.23859e-12 0)
(-2.06375e-14 1.34306e-12 0)
(-2.28664e-14 1.22904e-12 0)
(1.83654e-13 1.26813e-12 0)
(3.71745e-13 1.23034e-12 0)
(2.23993e-13 1.15282e-12 0)
(-6.0246e-14 9.4025e-13 0)
(-2.25095e-13 1.17665e-12 0)
(-3.15594e-13 1.11798e-12 0)
(-2.71859e-13 9.11406e-13 0)
(7.62625e-14 7.41432e-13 0)
(2.28378e-13 4.43218e-13 0)
(-1.89343e-13 4.76608e-13 0)
(-1.41446e-13 5.03049e-13 0)
(7.53634e-14 6.47313e-13 0)
(2.93996e-14 4.37958e-13 0)
(-8.95295e-14 5.57237e-13 0)
(-2.03366e-13 5.58235e-13 0)
(-2.15192e-13 5.86027e-13 0)
(-4.25527e-13 6.09213e-13 0)
(-4.38459e-13 5.30242e-13 0)
(-1.82224e-13 4.00773e-13 0)
(-1.62266e-13 3.50895e-13 0)
(-2.15634e-13 4.52164e-13 0)
(-5.69187e-14 4.92381e-13 0)
(-5.16088e-14 4.2842e-13 0)
(-3.17247e-14 6.10753e-13 0)
(6.79131e-14 5.65661e-13 0)
(1.28422e-13 6.53546e-13 0)
(2.26073e-13 5.35618e-13 0)
(9.82523e-14 4.39731e-13 0)
(-4.65792e-14 6.37427e-13 0)
(8.90499e-14 7.66246e-13 0)
(1.03108e-13 7.53021e-13 0)
(4.99167e-14 6.52022e-13 0)
(1.91518e-13 6.11348e-13 0)
(2.9746e-13 3.85189e-13 0)
(-2.38745e-15 5.19735e-13 0)
(-3.74565e-13 5.25524e-13 0)
(-3.81014e-13 5.65695e-13 0)
(-1.23522e-13 4.33498e-13 0)
(-1.30558e-14 4.35918e-13 0)
(-5.09152e-14 3.02869e-13 0)
(5.77371e-15 2.88426e-13 0)
(-1.33494e-13 3.6992e-13 0)
(-3.39936e-13 3.85243e-13 0)
(-3.04614e-13 2.47623e-13 0)
(-2.77799e-13 2.50894e-13 0)
(1.6797e-15 4.51439e-13 0)
(-1.36375e-13 6.86317e-13 0)
(-1.32199e-13 7.90793e-13 0)
(1.40013e-13 9.28344e-13 0)
(4.78145e-14 1.01719e-12 0)
(-1.17186e-13 1.06927e-12 0)
(-7.38691e-14 9.61519e-13 0)
(-2.21927e-13 7.92606e-13 0)
(-3.32965e-13 8.91011e-13 0)
(-2.02088e-13 9.66741e-13 0)
(-1.3909e-13 8.38404e-13 0)
(-8.33685e-14 7.38603e-13 0)
(4.13176e-14 7.41113e-13 0)
(2.23089e-13 6.99552e-13 0)
(1.96423e-13 6.25209e-13 0)
(1.91591e-14 7.09176e-13 0)
(-1.51733e-14 6.97381e-13 0)
(-2.31114e-14 5.3585e-13 0)
(-8.09156e-14 5.93969e-13 0)
(-1.2655e-13 5.88511e-13 0)
(-1.32218e-13 7.62183e-13 0)
(7.95826e-14 9.77342e-13 0)
(2.54642e-13 9.11852e-13 0)
(2.43742e-13 8.07309e-13 0)
(4.47293e-13 7.0074e-13 0)
(5.89315e-13 7.76526e-13 0)
(2.80216e-13 7.29015e-13 0)
(2.3809e-13 5.26432e-13 0)
(3.02377e-13 6.15351e-13 0)
(3.55086e-13 5.00566e-13 0)
(1.5019e-13 4.44718e-13 0)
(-1.10115e-13 5.53986e-13 0)
(-3.35365e-13 5.81865e-13 0)
(-3.62916e-13 5.46492e-13 0)
(-1.2468e-13 4.43375e-13 0)
(1.54326e-13 5.90328e-13 0)
(1.06814e-13 5.68604e-13 0)
(6.55318e-14 8.85371e-13 0)
(-1.97071e-14 8.89835e-13 0)
(-1.45546e-13 9.19371e-13 0)
(2.10381e-13 7.13137e-13 0)
(3.16558e-13 1.00878e-12 0)
(6.63034e-14 1.09696e-12 0)
(-3.42386e-14 1.18251e-12 0)
(1.72991e-13 1.25512e-12 0)
(4.07552e-13 1.16809e-12 0)
(4.88317e-13 1.19954e-12 0)
(4.95669e-13 1.18406e-12 0)
(4.15226e-13 1.10698e-12 0)
(1.78281e-13 1.17354e-12 0)
(1.09791e-13 1.13462e-12 0)
(-2.19595e-14 9.74703e-13 0)
(8.86396e-15 1.06525e-12 0)
(2.15766e-13 1.16804e-12 0)
(1.77059e-13 1.03108e-12 0)
(2.16197e-13 1.06911e-12 0)
(1.44663e-13 1.1172e-12 0)
(-4.90985e-14 1.08609e-12 0)
(8.69541e-14 8.41606e-13 0)
(-3.20582e-14 7.45045e-13 0)
(-9.77498e-15 7.80062e-13 0)
(9.44641e-14 6.08178e-13 0)
(1.26408e-13 6.32648e-13 0)
(4.0071e-13 6.69723e-13 0)
(5.48542e-13 7.46202e-13 0)
(4.23006e-13 6.63662e-13 0)
(1.89985e-13 7.1078e-13 0)
(-1.66698e-13 8.30409e-13 0)
(-4.29167e-13 1.09213e-12 0)
(-3.97901e-13 1.18671e-12 0)
(-3.62058e-13 8.82019e-13 0)
(-1.76834e-13 7.98726e-13 0)
(4.04072e-14 8.95395e-13 0)
(2.51681e-13 9.48807e-13 0)
(3.57821e-13 1.03253e-12 0)
(3.08779e-13 1.14008e-12 0)
(-1.45092e-13 1.08283e-12 0)
(-3.36958e-13 8.66985e-13 0)
(-1.54432e-13 6.42065e-13 0)
(-1.46688e-13 5.90416e-13 0)
(-3.44203e-15 5.47835e-13 0)
(-8.61864e-14 6.69419e-13 0)
(-3.63481e-13 5.15782e-13 0)
(-2.80142e-13 5.04823e-13 0)
(-1.34225e-13 5.73697e-13 0)
(-3.13891e-14 6.54293e-13 0)
(-3.11488e-15 6.17505e-13 0)
(1.05031e-13 7.29678e-13 0)
(1.26028e-13 6.77461e-13 0)
(-2.08822e-13 7.16308e-13 0)
(-2.47864e-13 6.44831e-13 0)
(-2.39633e-13 7.05157e-13 0)
(-5.75416e-13 7.47578e-13 0)
(-8.03981e-13 6.59582e-13 0)
(-6.57598e-13 5.04811e-13 0)
(-3.90387e-13 7.01269e-13 0)
(-7.38582e-14 6.0605e-13 0)
(-8.62213e-14 6.46585e-13 0)
(-4.48258e-13 6.395e-13 0)
(-4.92344e-13 7.03821e-13 0)
(-1.75404e-13 8.30794e-13 0)
(-7.45995e-14 9.42946e-13 0)
(-2.6636e-13 8.53828e-13 0)
(-2.27242e-13 7.4915e-13 0)
(3.19052e-14 7.33405e-13 0)
(1.49815e-13 6.52033e-13 0)
(1.18075e-13 6.53411e-13 0)
(-1.11665e-13 7.44884e-13 0)
(-2.72787e-13 7.26541e-13 0)
(-7.8831e-14 7.91306e-13 0)
(-1.86396e-13 9.66413e-13 0)
(-2.36087e-13 9.1029e-13 0)
(1.01368e-13 1.05796e-12 0)
(7.36809e-15 9.46373e-13 0)
(-2.03479e-13 8.10623e-13 0)
(-1.01602e-13 6.85421e-13 0)
(3.4399e-13 5.6703e-13 0)
(3.2866e-13 7.80149e-13 0)
(3.9618e-14 8.75116e-13 0)
(4.63321e-14 1.11465e-12 0)
(-8.18153e-14 1.12902e-12 0)
(-6.93736e-14 9.89343e-13 0)
(1.6314e-13 9.47632e-13 0)
(2.50938e-13 9.10763e-13 0)
(-1.29555e-14 9.36669e-13 0)
(-1.36511e-13 7.96632e-13 0)
(-9.53648e-14 7.25415e-13 0)
(-3.75021e-13 6.90421e-13 0)
(-4.78272e-13 6.52995e-13 0)
(-1.81744e-13 5.66461e-13 0)
(4.62963e-14 2.68596e-13 0)
(-6.13815e-14 3.26989e-13 0)
(-1.53435e-15 5.43886e-13 0)
(5.75226e-14 5.71205e-13 0)
(1.46886e-14 5.07651e-13 0)
(-7.6959e-14 5.00584e-13 0)
(-2.64448e-13 4.44686e-13 0)
(-1.49533e-13 4.50475e-13 0)
(-3.52657e-13 4.41474e-13 0)
(-5.39501e-13 7.24705e-13 0)
(-2.99537e-13 6.62143e-13 0)
(-3.80693e-14 7.49755e-13 0)
(-7.6759e-14 8.42903e-13 0)
(-1.65873e-13 7.30696e-13 0)
(-5.77895e-14 6.37967e-13 0)
(1.94157e-14 5.91815e-13 0)
(9.58403e-14 5.90292e-13 0)
(1.15599e-13 6.40476e-13 0)
(3.53491e-14 6.05833e-13 0)
(5.04038e-14 6.08804e-13 0)
(1.89833e-13 6.2861e-13 0)
(2.10283e-13 5.81498e-13 0)
(-4.89669e-14 5.15201e-13 0)
(-9.58912e-14 4.67961e-13 0)
(4.62946e-14 5.41904e-13 0)
(2.26976e-13 4.1348e-13 0)
(1.25715e-13 4.53561e-13 0)
(-2.56677e-13 5.19098e-13 0)
(-2.46811e-13 8.48738e-13 0)
(-1.02575e-13 8.37772e-13 0)
(-1.38797e-13 7.79708e-13 0)
(-2.50538e-13 5.35626e-13 0)
(-1.49189e-15 4.24876e-13 0)
(-4.92545e-14 2.93741e-13 0)
(-3.49905e-13 3.80919e-13 0)
(-4.0578e-13 4.68185e-13 0)
(-6.51724e-14 5.60066e-13 0)
(1.77393e-13 7.68433e-13 0)
(-7.79122e-14 5.87183e-13 0)
(1.45629e-14 7.10879e-13 0)
(2.80011e-13 8.05675e-13 0)
(1.74703e-13 8.42242e-13 0)
(-4.36836e-14 9.58046e-13 0)
(-3.57429e-13 9.14494e-13 0)
(-3.84343e-13 7.63175e-13 0)
(-1.34741e-13 9.46133e-13 0)
(-1.82368e-13 9.48026e-13 0)
(-2.10612e-13 9.71039e-13 0)
(-1.00651e-13 8.56958e-13 0)
(-1.86188e-14 7.66061e-13 0)
(1.39604e-13 7.17113e-13 0)
(2.09788e-13 6.14344e-13 0)
(2.87027e-14 5.54651e-13 0)
(-1.37104e-13 6.26265e-13 0)
(-6.95718e-14 6.05522e-13 0)
(-3.36157e-14 7.08834e-13 0)
(-4.80721e-14 7.14937e-13 0)
(1.8961e-13 8.84901e-13 0)
(1.74952e-13 1.02657e-12 0)
(-8.00966e-15 8.87118e-13 0)
(1.20238e-13 7.02162e-13 0)
(4.89008e-13 7.27715e-13 0)
(5.44283e-13 5.94758e-13 0)
(1.50047e-13 5.4092e-13 0)
(2.05014e-13 4.74218e-13 0)
(3.18e-13 4.72853e-13 0)
(4.12905e-13 4.9258e-13 0)
(9.77453e-14 3.10865e-13 0)
(1.12593e-15 4.70306e-13 0)
(-2.66893e-13 5.01935e-13 0)
(-3.41747e-13 7.46043e-13 0)
(-4.39697e-14 6.97353e-13 0)
(1.05822e-13 7.57728e-13 0)
(1.97092e-13 6.47253e-13 0)
(2.19649e-13 8.16378e-13 0)
(2.01285e-14 7.11104e-13 0)
(-1.08935e-13 8.76013e-13 0)
(1.1849e-13 7.90393e-13 0)
(3.73379e-13 8.00229e-13 0)
(1.71575e-13 7.7214e-13 0)
(1.91704e-13 9.66351e-13 0)
(2.53849e-13 1.2741e-12 0)
(4.54746e-13 1.23563e-12 0)
(5.80837e-13 1.20905e-12 0)
(3.76677e-13 1.17398e-12 0)
(3.12639e-13 1.09251e-12 0)
(1.31478e-13 9.11177e-13 0)
(4.936e-15 8.57741e-13 0)
(1.33191e-14 9.089e-13 0)
(1.52864e-13 9.8642e-13 0)
(1.52465e-13 1.06827e-12 0)
(1.16637e-13 1.03236e-12 0)
(1.91818e-13 1.01982e-12 0)
(1.8849e-13 8.90244e-13 0)
(-9.02342e-14 1.06365e-12 0)
(-1.68897e-13 9.93614e-13 0)
(-2.60638e-14 9.3111e-13 0)
(-7.06625e-14 8.03266e-13 0)
(2.00289e-14 8.10561e-13 0)
(2.2551e-13 9.97258e-13 0)
(4.55534e-13 9.08672e-13 0)
(4.59622e-13 7.99864e-13 0)
(3.09324e-13 5.91752e-13 0)
(2.94908e-13 4.9795e-13 0)
(5.19387e-14 5.98272e-13 0)
(-1.43011e-13 1.01073e-12 0)
(-3.6317e-13 1.20023e-12 0)
(-4.94933e-13 1.18628e-12 0)
(-2.57983e-13 1.21458e-12 0)
(-4.8997e-14 9.60425e-13 0)
(2.71709e-13 1.03974e-12 0)
(3.98362e-13 9.50162e-13 0)
(2.37813e-13 8.96834e-13 0)
(-1.41767e-13 8.44242e-13 0)
(-3.32005e-13 1.11169e-12 0)
(-3.07526e-13 1.04944e-12 0)
(-2.8302e-13 8.05435e-13 0)
(-5.69004e-14 7.22774e-13 0)
(-1.61843e-13 6.51746e-13 0)
(-3.67601e-13 7.05591e-13 0)
(-1.16245e-13 6.91692e-13 0)
(2.86627e-14 7.33421e-13 0)
(-9.33244e-14 7.09675e-13 0)
(-2.04295e-14 6.50329e-13 0)
(2.3205e-14 7.18263e-13 0)
(-7.62051e-15 4.81119e-13 0)
(-9.33406e-14 5.77914e-13 0)
(-2.24104e-13 7.20576e-13 0)
(-2.59271e-13 5.1951e-13 0)
(-4.83789e-13 7.4389e-13 0)
(-8.13582e-13 7.69991e-13 0)
(-6.00901e-13 7.23615e-13 0)
(-3.46456e-13 8.67252e-13 0)
(-2.13924e-13 8.20246e-13 0)
(-1.28898e-13 7.55508e-13 0)
(-3.34177e-13 9.43414e-13 0)
(-3.95138e-13 1.16178e-12 0)
(-1.50071e-13 1.11327e-12 0)
(-1.99962e-13 1.04646e-12 0)
(-3.03039e-13 1.02884e-12 0)
(-1.99589e-13 9.99147e-13 0)
(-2.40653e-14 9.29635e-13 0)
(1.1505e-13 8.61314e-13 0)
(1.29878e-13 9.48646e-13 0)
(-9.91623e-14 8.48359e-13 0)
(-1.95755e-13 9.57303e-13 0)
(4.83026e-14 9.96414e-13 0)
(-6.31493e-14 1.06444e-12 0)
(-1.16269e-13 1.25411e-12 0)
(-1.00685e-13 1.20264e-12 0)
(-1.82548e-13 9.03796e-13 0)
(-1.28637e-13 8.3772e-13 0)
(-7.52353e-14 9.80917e-13 0)
(2.46571e-13 9.09615e-13 0)
(2.35609e-13 5.97532e-13 0)
(1.20498e-13 4.88901e-13 0)
(1.52521e-13 5.91759e-13 0)
(-1.31572e-13 6.59637e-13 0)
(-2.2185e-13 5.86482e-13 0)
(1.22699e-13 4.90701e-13 0)
(3.64921e-13 5.12818e-13 0)
(1.66523e-13 8.03099e-13 0)
(-2.25478e-13 9.32408e-13 0)
(-2.89778e-13 7.41103e-13 0)
(-3.7108e-13 8.01895e-13 0)
(-3.83136e-13 9.2167e-13 0)
(-2.59972e-13 8.53052e-13 0)
(1.63069e-15 7.30231e-13 0)
(1.44578e-14 7.9228e-13 0)
(6.45222e-14 8.44726e-13 0)
(6.96803e-14 5.66883e-13 0)
(-6.48554e-14 5.80946e-13 0)
(-2.21504e-13 4.65868e-13 0)
(-2.97376e-13 5.54567e-13 0)
(-2.25145e-13 6.81456e-13 0)
(-1.80084e-13 6.40214e-13 0)
(-2.518e-13 8.10504e-13 0)
(-1.24344e-13 9.8208e-13 0)
(-7.0289e-14 9.3373e-13 0)
(-2.321e-13 9.36468e-13 0)
(-2.81584e-13 7.95719e-13 0)
(-1.36169e-13 8.39411e-13 0)
(-3.71098e-14 7.82599e-13 0)
(9.29473e-14 9.47112e-13 0)
(1.32043e-13 8.67819e-13 0)
(2.04744e-13 9.74991e-13 0)
(1.11048e-13 1.13761e-12 0)
(-2.61833e-14 1.01983e-12 0)
(2.37234e-14 7.74125e-13 0)
(5.20179e-14 6.66674e-13 0)
(1.17579e-13 7.89053e-13 0)
(1.02926e-13 9.36576e-13 0)
(1.66427e-13 8.31726e-13 0)
(1.02124e-13 7.76499e-13 0)
(3.7874e-14 8.18384e-13 0)
(-7.01309e-14 1.07987e-12 0)
(-2.56658e-13 9.10858e-13 0)
(-3.04566e-13 7.42457e-13 0)
(-4.59583e-13 7.65216e-13 0)
(-2.3313e-13 7.87687e-13 0)
(-1.69626e-13 6.57248e-13 0)
(-2.38252e-13 6.45756e-13 0)
(-1.25461e-13 7.90793e-13 0)
(1.26248e-13 9.66611e-13 0)
(2.18973e-14 8.74641e-13 0)
(-1.5388e-13 7.12642e-13 0)
(7.73426e-14 7.69509e-13 0)
(2.60044e-13 6.2676e-13 0)
(1.82738e-13 5.74035e-13 0)
(-2.90378e-14 6.5115e-13 0)
(-3.1635e-13 8.87168e-13 0)
(-1.23589e-13 1.02559e-12 0)
(-9.3443e-14 1.22967e-12 0)
(-1.98032e-13 1.09695e-12 0)
(-2.53101e-13 9.89042e-13 0)
(-2.40776e-13 9.75945e-13 0)
(-2.99548e-14 1.01067e-12 0)
(7.02632e-14 9.33497e-13 0)
(5.53811e-14 8.38368e-13 0)
(5.38816e-14 7.58663e-13 0)
(4.3088e-14 9.07223e-13 0)
(4.48347e-14 9.92673e-13 0)
(3.23881e-14 9.85064e-13 0)
(8.99262e-14 1.02484e-12 0)
(1.90176e-13 1.1164e-12 0)
(4.32714e-14 9.29781e-13 0)
(-3.56403e-14 8.62402e-13 0)
(1.30857e-13 1.02509e-12 0)
(3.92626e-13 9.55827e-13 0)
(3.80639e-13 7.39856e-13 0)
(1.45352e-13 6.72723e-13 0)
(1.69291e-13 7.67183e-13 0)
(3.65213e-13 6.36213e-13 0)
(4.7419e-13 6.97012e-13 0)
(2.06379e-13 6.0533e-13 0)
(5.94215e-14 6.8436e-13 0)
(-1.56492e-13 6.67018e-13 0)
(-2.37784e-13 6.61485e-13 0)
(-1.5185e-13 6.16705e-13 0)
(6.71528e-14 4.93358e-13 0)
(2.32274e-13 5.95778e-13 0)
(1.51526e-13 4.65382e-13 0)
(-1.67704e-14 4.55629e-13 0)
(-4.0542e-14 5.62097e-13 0)
(1.33077e-13 7.09668e-13 0)
(3.08994e-13 6.3413e-13 0)
(2.19119e-13 6.52929e-13 0)
(4.74316e-13 7.92806e-13 0)
(4.8241e-13 1.05039e-12 0)
(3.40302e-13 1.25269e-12 0)
(3.95835e-13 1.22237e-12 0)
(4.09831e-13 1.17349e-12 0)
(1.69919e-13 1.12275e-12 0)
(-4.18303e-14 9.31775e-13 0)
(1.26587e-13 9.39026e-13 0)
(6.75747e-14 1.03381e-12 0)
(1.34369e-13 9.84775e-13 0)
(2.10222e-13 9.19894e-13 0)
(1.51561e-13 9.76255e-13 0)
(1.08202e-13 9.76522e-13 0)
(2.32449e-13 8.78206e-13 0)
(9.34945e-14 8.13751e-13 0)
(-8.67045e-14 9.52052e-13 0)
(-1.99223e-13 9.05349e-13 0)
(-1.41984e-13 8.15304e-13 0)
(2.3868e-13 8.8524e-13 0)
(2.22955e-13 8.4118e-13 0)