/*--------------------------------*- C++ -*----------------------------------*\
  =========                 |
  \\      /  F ield         | OpenFOAM: The Open Source CFD Toolbox
   \\    /   O peration     | Website:  https://openfoam.org
    \\  /    A nd           | Version:  13
     \\/     M anipulation  |
\*---------------------------------------------------------------------------*/
FoamFile
{
    format      ascii;
    class       volScalarField;
    location    "0.0019";
    object      CH4;
}
// * * * * * * * * * * * * * * * * * * * * * * * * * * * * * * * * * * * * * //

dimensions      [];

internalField   nonuniform List<scalar> 
33334
(
5.74344e-31
5.80304e-31
6.05393e-31
6.70135e-31
8.04353e-31
1.05452e-30
1.5015e-30
2.29982e-30
3.76279e-30
6.55532e-30
1.2166e-29
2.40281e-29
5.02602e-29
1.10426e-28
2.5225e-28
5.92795e-28
1.41919e-27
3.43242e-27
8.32935e-27
2.01691e-26
4.85292e-26
1.15691e-25
2.72827e-25
6.36359e-25
1.46985e-24
3.36979e-24
7.69024e-24
1.75152e-23
3.98292e-23
9.0391e-23
2.04314e-22
4.58308e-22
1.01569e-21
2.21378e-21
4.7263e-21
9.8514e-21
1.99968e-20
3.94488e-20
7.55082e-20
1.40022e-19
2.51214e-19
4.35517e-19
7.2891e-19
1.17716e-18
1.83441e-18
2.75851e-18
4.00439e-18
5.61545e-18
7.61593e-18
1.00117e-17
1.28037e-17
1.60013e-17
1.95837e-17
2.33203e-17
2.64995e-17
2.81956e-17
2.85093e-17
2.8235e-17
2.7418e-17
2.59523e-17
2.38964e-17
2.14556e-17
1.89126e-17
1.65305e-17
1.4476e-17
1.28021e-17
1.14815e-17
1.04516e-17
9.6463e-18
9.01117e-18
8.50634e-18
8.10364e-18
7.78255e-18
7.52706e-18
7.32382e-18
7.16144e-18
7.03044e-18
6.92182e-18
6.83071e-18
6.75079e-18
6.67825e-18
6.62791e-18
6.59911e-18
6.60636e-18
6.65576e-18
6.7539e-18
6.89333e-18
7.08263e-18
7.33905e-18
7.68079e-18
8.1258e-18
8.69629e-18
9.42317e-18
1.03513e-17
1.15421e-17
1.30779e-17
1.50686e-17
1.76658e-17
2.1086e-17
2.56467e-17
3.18349e-17
4.0404e-17
5.25328e-17
7.01092e-17
9.61797e-17
1.3581e-16
1.97569e-16
2.96595e-16
4.6087e-16
7.4419e-16
1.2528e-15
2.20384e-15
4.05872e-15
7.83529e-15
1.59007e-14
3.41391e-14
7.80924e-14
1.91955e-13
5.13079e-13
1.50791e-12
4.92489e-12
1.81089e-11
7.57193e-11
3.64854e-10
2.08117e-09
1.44481e-08
1.24607e-07
1.4308e-06
2.37835e-05
0.000649724
0.0161625
0.0442005
0.0495945
0.0497203
0.0497871
0.0498575
0.0499179
0.0499606
0.0499851
0.0499959
0.0499993
0.0499999
0.05
0.05
0.05
0.05
0.05
0.05
0.05
0.05
0.05
0.05
0.05
0.05
0.05
0.05
0.05
0.05
0.05
0.05
0.05
0.05
0.05
0.05
0.05
0.05
5.80304e-31
5.86302e-31
6.1173e-31
6.77159e-31
8.12437e-31
1.06386e-30
1.51153e-30
2.30812e-30
3.76447e-30
6.54497e-30
1.21317e-29
2.39408e-29
5.00506e-29
1.09927e-28
2.51042e-28
5.89808e-28
1.41164e-27
3.41309e-27
8.27958e-27
2.00412e-26
4.82031e-26
1.14865e-25
2.70758e-25
6.31229e-25
1.45734e-24
3.33954e-24
7.61377e-24
1.72981e-23
3.92375e-23
8.88615e-23
2.00531e-22
4.49306e-22
9.95083e-22
2.16845e-21
4.6307e-21
9.65853e-21
1.9625e-20
3.87646e-20
7.43055e-20
1.38004e-19
2.47984e-19
4.30597e-19
7.21756e-19
1.16706e-18
1.81999e-18
2.73839e-18
3.97758e-18
5.58139e-18
7.57468e-18
9.96372e-18
1.27493e-17
1.59401e-17
1.95161e-17
2.32571e-17
2.64841e-17
2.82945e-17
2.86864e-17
2.84334e-17
2.7651e-17
2.62201e-17
2.41855e-17
2.17433e-17
1.9177e-17
1.67579e-17
1.46626e-17
1.29511e-17
1.15994e-17
1.05451e-17
9.72094e-18
9.07119e-18
8.55482e-18
8.14288e-18
7.81432e-18
7.55285e-18
7.34508e-18
7.17954e-18
7.04628e-18
6.93543e-18
6.84015e-18
6.75577e-18
6.68001e-18
6.62026e-18
6.58943e-18
6.59443e-18
6.63953e-18
6.73269e-18
6.86816e-18
7.05483e-18
7.3086e-18
7.64562e-18
8.08323e-18
8.64295e-18
9.35487e-18
1.02627e-17
1.14268e-17
1.29283e-17
1.48758e-17
1.74198e-17
2.07725e-17
2.52438e-17
3.13055e-17
3.96821e-17
5.15172e-17
6.86163e-17
9.39343e-17
1.32315e-16
1.91992e-16
2.87537e-16
4.45573e-16
7.16584e-16
1.2e-15
2.09952e-15
3.84811e-15
7.40246e-15
1.49839e-14
3.21025e-14
7.33143e-14
1.79764e-13
4.78706e-13
1.39847e-12
4.5222e-12
1.64359e-11
6.80878e-11
3.25396e-10
1.85608e-09
1.29873e-08
1.13891e-07
1.33402e-06
2.26945e-05
0.000612243
0.0154938
0.0438683
0.0495832
0.0497195
0.0497863
0.0498567
0.0499174
0.0499603
0.0499849
0.0499958
0.0499993
0.0499999
0.05
0.05
0.05
0.05
0.05
0.05
0.05
0.05
0.05
0.05
0.05
0.05
0.05
0.05
0.05
0.05
0.05
0.05
0.05
0.05
0.05
0.05
0.05
0.05
6.05393e-31
6.1173e-31
6.38508e-31
7.07101e-31
8.48363e-31
1.10958e-30
1.57157e-30
2.38775e-30
3.87262e-30
6.70572e-30
1.2397e-29
2.44218e-29
5.09947e-29
1.11897e-28
2.55331e-28
5.99375e-28
1.4332e-27
3.46161e-27
8.38767e-27
2.02775e-26
4.87055e-26
1.15895e-25
2.7277e-25
6.3492e-25
1.46344e-24
3.34723e-24
7.61339e-24
1.72499e-23
3.90317e-23
8.82184e-23
1.98778e-22
4.44914e-22
9.84774e-22
2.14566e-21
4.58321e-21
9.56542e-21
1.94537e-20
3.84693e-20
7.38315e-20
1.37301e-19
2.4704e-19
4.29501e-19
7.20784e-19
1.16676e-18
1.82122e-18
2.7427e-18
3.9875e-18
5.60072e-18
7.6085e-18
1.00178e-17
1.2829e-17
1.60492e-17
1.96588e-17
2.34504e-17
2.67883e-17
2.8798e-17
2.93279e-17
2.91025e-17
2.8356e-17
2.6949e-17
2.49066e-17
2.24157e-17
1.9768e-17
1.72536e-17
1.50657e-17
1.32741e-17
1.18575e-17
1.07521e-17
9.88804e-18
9.20661e-18
8.6646e-18
8.23152e-18
7.88543e-18
7.6095e-18
7.39001e-18
7.21471e-18
7.07254e-18
6.95317e-18
6.84749e-18
6.75342e-18
6.67355e-18
6.61372e-18
6.58258e-18
6.58357e-18
6.62457e-18
6.71466e-18
6.84855e-18
7.03436e-18
7.28624e-18
7.61886e-18
8.0489e-18
8.59785e-18
9.29514e-18
1.01825e-17
1.13213e-17
1.27942e-17
1.47106e-17
1.72186e-17
2.0524e-17
2.49336e-17
3.09092e-17
3.91583e-17
5.07941e-17
6.75759e-17
9.2369e-17
1.29886e-16
1.88162e-16
2.81337e-16
4.35007e-16
6.97352e-16
1.16306e-15
2.02576e-15
3.69829e-15
7.09682e-15
1.43518e-14
3.0747e-14
7.03087e-14
1.72872e-13
4.62032e-13
1.35696e-12
4.41584e-12
1.61789e-11
6.79615e-11
3.29605e-10
1.89383e-09
1.33807e-08
1.18555e-07
1.39866e-06
2.39494e-05
0.000652191
0.0160224
0.0441033
0.0495905
0.0497198
0.0497867
0.0498571
0.0499176
0.0499604
0.049985
0.0499959
0.0499993
0.0499999
0.05
0.05
0.05
0.05
0.05
0.05
0.05
0.05
0.05
0.05
0.05
0.05
0.05
0.05
0.05
0.05
0.05
0.05
0.05
0.05
0.05
0.05
0.05
0.05
6.70135e-31
6.77159e-31
7.07101e-31
7.83643e-31
9.40773e-31
1.23017e-30
1.73921e-30
2.63271e-30
4.24808e-30
7.31255e-30
1.34442e-29
2.63575e-29
5.48046e-29
1.19796e-28
2.7236e-28
6.3708e-28
1.51795e-27
3.65315e-27
8.81937e-27
2.12415e-26
5.08274e-26
1.20479e-25
2.82451e-25
6.54806e-25
1.50274e-24
3.42097e-24
7.74687e-24
1.7508e-23
3.95453e-23
8.92627e-23
2.00956e-22
4.49588e-22
9.95063e-22
2.16867e-21
4.63483e-21
9.67994e-21
1.97018e-20
3.89904e-20
7.4886e-20
1.39354e-19
2.50894e-19
4.36498e-19
7.33157e-19
1.18828e-18
1.85842e-18
2.80489e-18
4.08731e-18
5.75455e-18
7.83616e-18
1.0341e-17
1.32689e-17
1.66259e-17
2.03963e-17
2.43883e-17
2.79778e-17
3.02309e-17
3.08911e-17
3.0677e-17
2.99212e-17
2.84604e-17
2.63078e-17
2.36556e-17
2.08193e-17
1.81181e-17
1.57652e-17
1.38381e-17
1.23144e-17
1.11251e-17
1.01948e-17
9.45992e-18
8.87379e-18
8.40352e-18
8.02571e-18
7.72254e-18
7.47948e-18
7.28341e-18
7.12247e-18
6.98659e-18
6.86955e-18
6.77121e-18
6.6934e-18
6.63807e-18
6.60866e-18
6.60866e-18
6.64672e-18
6.73421e-18
6.86752e-18
7.05315e-18
7.30373e-18
7.63348e-18
8.05904e-18
8.60222e-18
9.29312e-18
1.01742e-17
1.13078e-17
1.27783e-17
1.46975e-17
1.72154e-17
2.05401e-17
2.49807e-17
3.10006e-17
3.93109e-17
5.10255e-17
6.79082e-17
9.28183e-17
1.30486e-16
1.89004e-16
2.82516e-16
4.36515e-16
6.9885e-16
1.1635e-15
2.023e-15
3.68922e-15
7.0805e-15
1.43416e-14
3.08071e-14
7.07108e-14
1.74727e-13
4.69369e-13
1.38625e-12
4.53782e-12
1.66968e-11
7.04604e-11
3.44285e-10
1.98474e-09
1.40498e-08
1.2494e-07
1.4774e-06
2.53955e-05
0.000703277
0.0168929
0.0444562
0.049601
0.0497207
0.0497876
0.0498579
0.0499182
0.0499607
0.0499851
0.0499959
0.0499993
0.0499999
0.05
0.05
0.05
0.05
0.05
0.05
0.05
0.05
0.05
0.05
0.05
0.05
0.05
0.05
0.05
0.05
0.05
0.05
0.05
0.05
0.05
0.05
0.05
0.05
8.04353e-31
8.12437e-31
8.48363e-31
9.40773e-31
1.13023e-30
1.47833e-30
2.08894e-30
3.15662e-30
5.07592e-30
8.6898e-30
1.58662e-29
3.08704e-29
6.36873e-29
1.3813e-28
3.11659e-28
7.23636e-28
1.71189e-27
4.09133e-27
9.81042e-27
2.34726e-26
5.58048e-26
1.31448e-25
3.06269e-25
7.05638e-25
1.60923e-24
3.64085e-24
8.20003e-24
1.84487e-23
4.15304e-23
9.35281e-23
2.10276e-22
4.70218e-22
1.041e-21
2.27075e-21
4.85908e-21
1.01629e-20
2.0715e-20
4.10519e-20
7.89449e-20
1.47085e-19
2.65157e-19
4.62045e-19
7.77673e-19
1.26375e-18
1.98248e-18
3.00229e-18
4.39078e-18
6.20473e-18
8.48014e-18
1.12298e-17
1.44554e-17
1.81658e-17
2.23489e-17
2.67975e-17
3.08058e-17
3.33063e-17
3.40289e-17
3.37845e-17
3.29246e-17
3.12624e-17
2.88161e-17
2.58113e-17
2.26124e-17
1.95799e-17
1.69493e-17
1.48012e-17
1.31055e-17
1.17824e-17
1.07462e-17
9.92575e-18
9.26876e-18
8.73855e-18
8.30927e-18
7.96138e-18
7.67885e-18
7.44756e-18
7.25568e-18
7.09479e-18
6.96264e-18
6.85941e-18
6.78379e-18
6.73329e-18
6.70732e-18
6.70855e-18
6.74755e-18
6.83686e-18
6.97477e-18
7.16615e-18
7.4211e-18
7.75295e-18
8.17911e-18
8.72314e-18
9.41822e-18
1.03112e-17
1.14656e-17
1.29679e-17
1.49352e-17
1.75257e-17
2.09606e-17
2.55582e-17
3.17942e-17
4.04007e-17
5.25186e-17
6.99557e-17
9.56332e-17
1.34415e-16
1.94633e-16
2.90772e-16
4.48818e-16
7.17396e-16
1.19196e-15
2.06925e-15
3.77119e-15
7.24162e-15
1.4699e-14
3.1694e-14
7.31187e-14
1.8188e-13
4.91752e-13
1.46156e-12
4.81986e-12
1.78207e-11
7.53912e-11
3.70321e-10
2.14358e-09
1.52107e-08
1.36665e-07
1.62692e-06
2.80612e-05
0.000788555
0.0180913
0.0449046
0.0496125
0.0497219
0.0497887
0.0498589
0.0499189
0.0499612
0.0499853
0.049996
0.0499993
0.0499999
0.05
0.05
0.05
0.05
0.05
0.05
0.05
0.05
0.05
0.05
0.05
0.05
0.05
0.05
0.05
0.05
0.05
0.05
0.05
0.05
0.05
0.05
0.05
0.05
1.05452e-30
1.06386e-30
1.10958e-30
1.23017e-30
1.47833e-30
1.93342e-30
2.72955e-30
4.11713e-30
6.59905e-30
1.12385e-29
2.03698e-29
3.92765e-29
8.02165e-29
1.72159e-28
3.84377e-28
8.83411e-28
2.06945e-27
4.89965e-27
1.16437e-26
2.76214e-26
6.51348e-26
1.52236e-25
3.5207e-25
8.05385e-25
1.82432e-24
4.1022e-24
9.18927e-24
2.05764e-23
4.61474e-23
1.03658e-22
2.32706e-22
5.20119e-22
1.15181e-21
2.51465e-21
5.3875e-21
1.12833e-20
2.30301e-20
4.57009e-20
8.80052e-20
1.64215e-19
2.96586e-19
5.18024e-19
8.74431e-19
1.42587e-18
2.24546e-18
3.41504e-18
5.01686e-18
7.1214e-18
9.77519e-18
1.2998e-17
1.6798e-17
2.11908e-17
2.6158e-17
3.14215e-17
3.60736e-17
3.88247e-17
3.9515e-17
3.91811e-17
3.8082e-17
3.60075e-17
3.3006e-17
2.93758e-17
2.5562e-17
2.19845e-17
1.89057e-17
1.64053e-17
1.44377e-17
1.2904e-17
1.17021e-17
1.07485e-17
9.98205e-18
9.36018e-18
8.853e-18
8.43813e-18
8.09738e-18
7.81546e-18
7.58071e-18
7.38626e-18
7.23071e-18
7.1126e-18
7.02863e-18
6.97461e-18
6.94825e-18
6.95084e-18
6.99507e-18
7.09504e-18
7.24846e-18
7.45851e-18
7.73356e-18
8.08643e-18
8.5358e-18
9.1081e-18
9.84022e-18
1.0783e-17
1.20053e-17
1.36001e-17
1.56932e-17
1.84527e-17
2.21132e-17
2.7013e-17
3.36547e-17
4.281e-17
5.56754e-17
7.4146e-17
1.01284e-16
1.42196e-16
2.05604e-16
3.06668e-16
4.72614e-16
7.5437e-16
1.25196e-15
2.17145e-15
3.95544e-15
7.59622e-15
1.54371e-14
3.33522e-14
7.71372e-14
1.92581e-13
5.22792e-13
1.55901e-12
5.1641e-12
1.91741e-11
8.12202e-11
4.00504e-10
2.33453e-09
1.66074e-08
1.50113e-07
1.81094e-06
3.14654e-05
0.000898259
0.019507
0.0453931
0.0496242
0.0497235
0.0497903
0.0498603
0.0499199
0.0499618
0.0499856
0.0499961
0.0499993
0.0499999
0.05
0.05
0.05
0.05
0.05
0.05
0.05
0.05
0.05
0.05
0.05
0.05
0.05
0.05
0.05
0.05
0.05
0.05
0.05
0.05
0.05
0.05
0.05
0.05
1.5015e-30
1.51153e-30
1.57157e-30
1.73921e-30
2.08894e-30
2.72955e-30
3.84474e-30
5.77787e-30
9.21478e-30
1.5592e-29
2.80304e-29
5.35199e-29
1.08109e-28
2.29335e-28
5.06055e-28
1.14977e-27
2.6638e-27
6.24093e-27
1.46847e-26
3.45115e-26
8.06724e-26
1.87008e-25
4.29181e-25
9.7486e-25
2.19422e-24
4.90654e-24
1.09377e-23
2.43874e-23
5.4502e-23
1.22098e-22
2.73611e-22
6.10933e-22
1.35245e-21
2.95309e-21
6.32989e-21
1.32665e-20
2.71027e-20
5.38443e-20
1.03837e-19
1.94116e-19
3.51407e-19
6.15526e-19
1.04251e-18
1.70647e-18
2.69875e-18
4.12307e-18
6.08494e-18
8.6759e-18
1.19581e-17
1.59619e-17
2.0706e-17
2.62152e-17
3.24473e-17
3.89856e-17
4.45869e-17
4.76302e-17
4.81989e-17
4.77092e-17
4.62021e-17
4.34466e-17
3.9557e-17
3.49476e-17
3.01811e-17
2.57629e-17
2.19941e-17
1.89524e-17
1.65681e-17
1.47128e-17
1.32593e-17
1.21051e-17
1.11756e-17
1.04189e-17
9.79904e-18
9.28911e-18
8.86787e-18
8.51819e-18
8.22723e-18
7.987e-18
7.7936e-18
7.64325e-18
7.5324e-18
7.45801e-18
7.42002e-18
7.41692e-18
7.46015e-18
7.57167e-18
7.74757e-18
7.98743e-18
8.29887e-18
8.69501e-18
9.19543e-18
9.82883e-18
1.06356e-17
1.16706e-17
1.30088e-17
1.47507e-17
1.7031e-17
2.00292e-17
2.39957e-17
2.92927e-17
3.64564e-17
4.63069e-17
6.01115e-17
7.98762e-17
1.08842e-16
1.52403e-16
2.19744e-16
3.26861e-16
5.02591e-16
8.0097e-16
1.32823e-15
2.30325e-15
4.19589e-15
8.05976e-15
1.63895e-14
3.54576e-14
8.21483e-14
2.05568e-13
5.599e-13
1.67492e-12
5.56722e-12
2.07891e-11
8.84459e-11
4.38207e-10
2.58131e-09
1.84778e-08
1.68289e-07
2.06687e-06
3.64642e-05
0.00105397
0.0212043
0.0459347
0.0496358
0.0497253
0.0497921
0.0498619
0.0499211
0.0499625
0.049986
0.0499962
0.0499993
0.0499999
0.05
0.05
0.05
0.05
0.05
0.05
0.05
0.05
0.05
0.05
0.05
0.05
0.05
0.05
0.05
0.05
0.05
0.05
0.05
0.05
0.05
0.05
0.05
0.05
2.29982e-30
2.30812e-30
2.38775e-30
2.63271e-30
3.15662e-30
4.11713e-30
5.77787e-30
8.63248e-30
1.36646e-29
2.29196e-29
4.0796e-29
7.70366e-29
1.53763e-28
3.22148e-28
7.02021e-28
1.57562e-27
3.60788e-27
8.35979e-27
1.94678e-26
4.53151e-26
1.04989e-25
2.41385e-25
5.4982e-25
1.24041e-24
2.77506e-24
6.17238e-24
1.36948e-23
3.04073e-23
6.77065e-23
1.51212e-22
3.38014e-22
7.53353e-22
1.66565e-21
3.63442e-21
7.78857e-21
1.63274e-20
3.33794e-20
6.63931e-20
1.28256e-19
2.40297e-19
4.36187e-19
7.66432e-19
1.30269e-18
2.14058e-18
3.3992e-18
5.21493e-18
7.72753e-18
1.10587e-17
1.5292e-17
2.04716e-17
2.66299e-17
3.38008e-17
4.18948e-17
5.02759e-17
5.72231e-17
6.06666e-17
6.10528e-17
6.033e-17
5.82014e-17
5.44329e-17
4.9248e-17
4.32168e-17
3.70618e-17
3.14119e-17
2.66272e-17
2.27857e-17
1.97846e-17
1.74544e-17
1.56308e-17
1.41835e-17
1.30179e-17
1.20684e-17
1.12893e-17
1.06471e-17
1.01157e-17
9.67438e-18
9.3067e-18
9.00077e-18
8.74874e-18
8.54501e-18
8.38665e-18
8.27292e-18
8.207e-18
8.18595e-18
8.21678e-18
8.32782e-18
8.52186e-18
8.79245e-18
9.14581e-18
9.59615e-18
1.01638e-17
1.08787e-17
1.17837e-17
1.29382e-17
1.44228e-17
1.63462e-17
1.88523e-17
2.21333e-17
2.64571e-17
3.22107e-17
3.99669e-17
5.05992e-17
6.54548e-17
8.66628e-17
1.1766e-16
1.64159e-16
2.35861e-16
3.49718e-16
5.36376e-16
8.53387e-16
1.41414e-15
2.45253e-15
4.47111e-15
8.59756e-15
1.75059e-14
3.79432e-14
8.81141e-14
2.2105e-13
6.04101e-13
1.81479e-12
6.05685e-12
2.27484e-11
9.75091e-11
4.85928e-10
2.88628e-09
2.09265e-08
1.92186e-07
2.39079e-06
4.33726e-05
0.00126527
0.0231489
0.0465053
0.0496465
0.0497275
0.0497943
0.0498639
0.0499225
0.0499634
0.0499864
0.0499964
0.0499994
0.0499999
0.05
0.05
0.05
0.05
0.05
0.05
0.05
0.05
0.05
0.05
0.05
0.05
0.05
0.05
0.05
0.05
0.05
0.05
0.05
0.05
0.05
0.05
0.05
0.05
3.76279e-30
3.76447e-30
3.87262e-30
4.24808e-30
5.07592e-30
6.59905e-30
9.21478e-30
1.36646e-29
2.14229e-29
3.55344e-29
6.2481e-29
1.16454e-28
2.29288e-28
4.73749e-28
1.01824e-27
2.25497e-27
5.09811e-27
1.16727e-26
2.68835e-26
6.1942e-26
1.42175e-25
3.24101e-25
7.32498e-25
1.6409e-24
3.64768e-24
8.06643e-24
1.78029e-23
3.93383e-23
8.72102e-23
1.94017e-22
4.32271e-22
9.60887e-22
2.12036e-21
4.6208e-21
9.89687e-21
2.07497e-20
4.24532e-20
8.4561e-20
1.63679e-19
3.07435e-19
5.59684e-19
9.86604e-19
1.68269e-18
2.77489e-18
4.42233e-18
6.8082e-18
1.01205e-17
1.45225e-17
2.01254e-17
2.69892e-17
3.51613e-17
4.46839e-17
5.53894e-17
6.63163e-17
7.51031e-17
7.91337e-17
7.93163e-17
7.82421e-17
7.52067e-17
7.00131e-17
6.30268e-17
5.50115e-17
4.69059e-17
3.95138e-17
3.32831e-17
2.8297e-17
2.44105e-17
2.13981e-17
1.90443e-17
1.7179e-17
1.56787e-17
1.44578e-17
1.34562e-17
1.26303e-17
1.19463e-17
1.13772e-17
1.09007e-17
1.04997e-17
1.01623e-17
9.88148e-18
9.65497e-18
9.48382e-18
9.37249e-18
9.32141e-18
9.33074e-18
9.42338e-18
9.62183e-18
9.91434e-18
1.03033e-17
1.08044e-17
1.14398e-17
1.22408e-17
1.32527e-17
1.45395e-17
1.61889e-17
1.83184e-17
2.10829e-17
2.46888e-17
2.94237e-17
3.57012e-17
4.41359e-17
5.56612e-17
7.17159e-17
9.45698e-17
1.27882e-16
1.77727e-16
2.54416e-16
3.76018e-16
5.75247e-16
9.13652e-16
1.51285e-15
2.62419e-15
4.78873e-15
9.22274e-15
1.88145e-14
4.08757e-14
9.52179e-14
2.39704e-13
6.57767e-13
1.98624e-12
6.66809e-12
2.52093e-11
1.08947e-10
5.48123e-10
3.28287e-09
2.41046e-08
2.25264e-07
2.83329e-06
5.27141e-05
0.00156761
0.0253467
0.0470693
0.0496557
0.0497299
0.0497969
0.0498661
0.0499241
0.0499643
0.0499869
0.0499965
0.0499994
0.0499999
0.05
0.05
0.05
0.05
0.05
0.05
0.05
0.05
0.05
0.05
0.05
0.05
0.05
0.05
0.05
0.05
0.05
0.05
0.05
0.05
0.05
0.05
0.05
0.05
6.55532e-30
6.54497e-30
6.70572e-30
7.31255e-30
8.6898e-30
1.12385e-29
1.5592e-29
2.29196e-29
3.55344e-29
5.81754e-29
1.00818e-28
1.85022e-28
3.58505e-28
7.28867e-28
1.54188e-27
3.3628e-27
7.49362e-27
1.69278e-26
3.85045e-26
8.77103e-26
1.9923e-25
4.49852e-25
1.00789e-24
2.2399e-24
4.94284e-24
1.08565e-23
2.38096e-23
5.23036e-23
1.15332e-22
2.55355e-22
5.6661e-22
1.25537e-21
2.76347e-21
6.01308e-21
1.28704e-20
2.69886e-20
5.52693e-20
1.10265e-19
2.13892e-19
4.02785e-19
7.35376e-19
1.30025e-18
2.22449e-18
3.67956e-18
5.88116e-18
9.07798e-18
1.35247e-17
1.94405e-17
2.69712e-17
3.61929e-17
4.71671e-17
5.99417e-17
7.42327e-17
8.86063e-17
9.98421e-17
1.04722e-16
1.04712e-16
1.03076e-16
9.87522e-17
9.16064e-17
8.21553e-17
7.14136e-17
6.06171e-17
5.08108e-17
4.25654e-17
3.59763e-17
3.08454e-17
2.68729e-17
2.37737e-17
2.1322e-17
1.93539e-17
1.7755e-17
1.64447e-17
1.53639e-17
1.44673e-17
1.37187e-17
1.30883e-17
1.25527e-17
1.20962e-17
1.17098e-17
1.13917e-17
1.11434e-17
1.097e-17
1.08759e-17
1.08548e-17
1.09171e-17
1.11029e-17
1.14054e-17
1.18197e-17
1.23626e-17
1.30596e-17
1.39448e-17
1.50675e-17
1.64974e-17
1.83307e-17
2.06956e-17
2.37602e-17
2.7748e-17
3.29688e-17
3.98683e-17
4.9109e-17
6.16958e-17
7.91764e-17
1.03987e-16
1.40049e-16
1.93863e-16
2.76464e-16
4.0724e-16
6.21309e-16
9.8488e-16
1.62915e-15
2.82584e-15
5.16092e-15
9.95523e-15
2.03528e-14
4.43406e-14
1.03673e-13
2.62177e-13
7.23242e-13
2.19736e-12
7.42913e-12
2.83241e-11
1.23513e-10
6.27736e-10
3.8062e-09
2.82542e-08
2.68562e-07
3.45883e-06
6.55609e-05
0.00198606
0.027703
0.0476043
0.0496635
0.0497327
0.0497997
0.0498686
0.0499259
0.0499654
0.0499874
0.0499967
0.0499995
0.05
0.05
0.05
0.05
0.05
0.05
0.05
0.05
0.05
0.05
0.05
0.05
0.05
0.05
0.05
0.05
0.05
0.05
0.05
0.05
0.05
0.05
0.05
0.05
0.05
1.2166e-29
1.21317e-29
1.2397e-29
1.34442e-29
1.58662e-29
2.03698e-29
2.80304e-29
4.0796e-29
6.2481e-29
1.00818e-28
1.7187e-28
3.0985e-28
5.89321e-28
1.17585e-27
2.44194e-27
5.23216e-27
1.14659e-26
2.55009e-26
5.71774e-26
1.28538e-25
2.88461e-25
6.44166e-25
1.42867e-24
3.14545e-24
6.88124e-24
1.49923e-23
3.26328e-23
7.11852e-23
1.55967e-22
3.43371e-22
7.58245e-22
1.67348e-21
3.67345e-21
7.97879e-21
1.70642e-20
3.57866e-20
7.33522e-20
1.46567e-19
2.84889e-19
5.37754e-19
9.84302e-19
1.74492e-18
2.99282e-18
4.96227e-18
7.94831e-18
1.22908e-17
1.8336e-17
2.63772e-17
3.6603e-17
4.91032e-17
6.39497e-17
8.11908e-17
1.00375e-16
1.19401e-16
1.3387e-16
1.39908e-16
1.39696e-16
1.37179e-16
1.31074e-16
1.21254e-16
1.08425e-16
9.39463e-17
7.94604e-17
6.63369e-17
5.5313e-17
4.65045e-17
3.96455e-17
3.43376e-17
3.02013e-17
2.6935e-17
2.43184e-17
2.21967e-17
2.04597e-17
1.90266e-17
1.78353e-17
1.6837e-17
1.5992e-17
1.527e-17
1.46502e-17
1.41212e-17
1.36802e-17
1.33291e-17
1.30734e-17
1.29171e-17
1.28539e-17
1.28826e-17
1.30399e-17
1.33422e-17
1.3776e-17
1.4356e-17
1.51127e-17
1.60852e-17
1.73284e-17
1.892e-17
2.09663e-17
2.36088e-17
2.70311e-17
3.14771e-17
3.72837e-17
4.49341e-17
5.51488e-17
6.9018e-17
8.82197e-17
1.1539e-16
1.54761e-16
2.13339e-16
3.03021e-16
4.44737e-16
6.76436e-16
1.06985e-15
1.7675e-15
3.06497e-15
5.60071e-15
1.08191e-14
2.21718e-14
4.84614e-14
1.13809e-13
2.89422e-13
8.03519e-13
2.45958e-12
8.385e-12
3.2266e-11
1.42335e-10
7.31092e-10
4.48796e-09
3.39057e-08
3.26605e-07
4.30516e-06
8.44945e-05
0.0025613
0.030161
0.0481071
0.04967
0.0497357
0.0498029
0.0498713
0.0499278
0.0499665
0.0499879
0.0499969
0.0499995
0.05
0.05
0.05
0.05
0.05
0.05
0.05
0.05
0.05
0.05
0.05
0.05
0.05
0.05
0.05
0.05
0.05
0.05
0.05
0.05
0.05
0.05
0.05
0.05
0.05
2.40281e-29
2.39408e-29
2.44218e-29
2.63575e-29
3.08704e-29
3.92765e-29
5.35199e-29
7.70366e-29
1.16454e-28
1.85022e-28
3.0985e-28
5.47724e-28
1.02028e-27
1.99293e-27
4.05269e-27
8.50887e-27
1.82921e-26
3.99599e-26
8.81229e-26
1.95103e-25
4.31746e-25
9.51799e-25
2.0861e-24
4.54292e-24
9.8382e-24
2.12334e-23
4.58134e-23
9.91302e-23
2.156e-22
4.7158e-22
1.03563e-21
2.27555e-21
4.97848e-21
1.07895e-20
2.30487e-20
4.83268e-20
9.91124e-20
1.98273e-19
3.86021e-19
7.30026e-19
1.33891e-18
2.37823e-18
4.08658e-18
6.78685e-18
1.08855e-17
1.68491e-17
2.51493e-17
3.61783e-17
5.01755e-17
6.72396e-17
8.74441e-17
1.10827e-16
1.36698e-16
1.62025e-16
1.80787e-16
1.88311e-16
1.87797e-16
1.84029e-16
1.75443e-16
1.61924e-16
1.44438e-16
1.24824e-16
1.05276e-16
8.75983e-17
7.27518e-17
6.08817e-17
5.16329e-17
4.44755e-17
3.89019e-17
3.45073e-17
3.09933e-17
2.81492e-17
2.58234e-17
2.39045e-17
2.23069e-17
2.09642e-17
1.98236e-17
1.88459e-17
1.80036e-17
1.72808e-17
1.66731e-17
1.61818e-17
1.5813e-17
1.55685e-17
1.54476e-17
1.54361e-17
1.55526e-17
1.5847e-17
1.63012e-17
1.69231e-17
1.77476e-17
1.88213e-17
2.02069e-17
2.19921e-17
2.42957e-17
2.72747e-17
3.11316e-17
3.61341e-17
4.26513e-17
5.12117e-17
6.26047e-17
7.80229e-17
9.92997e-17
1.2931e-16
1.72664e-16
2.36973e-16
3.35173e-16
4.90025e-16
7.42858e-16
1.17206e-15
1.93377e-15
3.35205e-15
6.1279e-15
1.18546e-14
2.43605e-14
5.34518e-14
1.26168e-13
3.22941e-13
9.03124e-13
2.78705e-12
9.59817e-12
3.73175e-11
1.6643e-10
8.67795e-10
5.39407e-09
4.13422e-08
4.08514e-07
5.48611e-06
0.000111475
0.00339497
0.0326733
0.0485506
0.0496755
0.0497389
0.0498063
0.0498742
0.0499299
0.0499678
0.0499885
0.0499971
0.0499995
0.05
0.05
0.05
0.05
0.05
0.05
0.05
0.05
0.05
0.05
0.05
0.05
0.05
0.05
0.05
0.05
0.05
0.05
0.05
0.05
0.05
0.05
0.05
0.05
0.05
5.02602e-29
5.00506e-29
5.09947e-29
5.48046e-29
6.36873e-29
8.02165e-29
1.08109e-28
1.53763e-28
2.29288e-28
3.58505e-28
5.89321e-28
1.02028e-27
1.85845e-27
3.54704e-27
7.04778e-27
1.44669e-26
3.04381e-26
6.51622e-26
1.41025e-25
3.06855e-25
6.6828e-25
1.45175e-24
3.13904e-24
6.75096e-24
1.44515e-23
3.08564e-23
6.59149e-23
1.41321e-22
3.04816e-22
6.61844e-22
1.44438e-21
3.15747e-21
6.88068e-21
1.48701e-20
3.17101e-20
6.64334e-20
1.36243e-19
2.7271e-19
5.31471e-19
1.00633e-18
1.84807e-18
3.28673e-18
5.65387e-18
9.39785e-18
1.50817e-17
2.33488e-17
3.48425e-17
5.00863e-17
6.93799e-17
9.28192e-17
1.20464e-16
1.52326e-16
1.87371e-16
2.21262e-16
2.45745e-16
2.55158e-16
2.54179e-16
2.48629e-16
2.36567e-16
2.17898e-16
1.93961e-16
1.67263e-16
1.40744e-16
1.16796e-16
9.66806e-17
8.05829e-17
6.80278e-17
5.8307e-17
5.07398e-17
4.47797e-17
4.00216e-17
3.61766e-17
3.30361e-17
3.0446e-17
2.82881e-17
2.64714e-17
2.49247e-17
2.35961e-17
2.24491e-17
2.14612e-17
2.06248e-17
1.99399e-17
1.94127e-17
1.90453e-17
1.88373e-17
1.87682e-17
1.88411e-17
1.91159e-17
1.95943e-17
2.02707e-17
2.11817e-17
2.23826e-17
2.39465e-17
2.59735e-17
2.85972e-17
3.19931e-17
3.63853e-17
4.207e-17
4.94549e-17
5.91226e-17
7.19455e-17
8.92399e-17
1.13027e-16
1.46475e-16
1.94658e-16
2.65936e-16
3.74526e-16
5.45428e-16
8.24123e-16
1.29721e-15
2.1375e-15
3.70396e-15
6.77473e-15
1.31271e-14
2.7058e-14
5.96253e-14
1.4151e-13
3.6471e-13
1.02794e-12
3.20006e-12
1.11398e-11
4.38394e-11
1.97842e-10
1.04523e-09
6.62137e-09
5.15408e-08
5.18451e-07
7.21518e-06
0.000151395
0.00456709
0.0351468
0.0489098
0.0496804
0.0497423
0.04981
0.0498773
0.0499321
0.049969
0.0499891
0.0499973
0.0499996
0.05
0.05
0.05
0.05
0.05
0.05
0.05
0.05
0.05
0.05
0.05
0.05
0.05
0.05
0.05
0.05
0.05
0.05
0.05
0.05
0.05
0.05
0.05
0.05
0.05
1.10426e-28
1.09927e-28
1.11897e-28
1.19796e-28
1.3813e-28
1.72159e-28
2.29335e-28
3.22148e-28
4.73749e-28
7.28867e-28
1.17585e-27
1.99293e-27
3.54704e-27
6.60738e-27
1.28088e-26
2.56616e-26
5.27426e-26
1.10437e-25
2.34106e-25
4.99689e-25
1.06909e-24
2.28475e-24
4.86621e-24
1.03206e-23
2.18097e-23
4.60137e-23
9.72108e-23
2.06306e-22
4.40883e-22
9.4946e-22
2.05744e-21
4.47114e-21
9.69738e-21
2.08821e-20
4.44173e-20
9.29055e-20
1.90375e-19
3.80979e-19
7.42627e-19
1.40678e-18
2.58486e-18
4.59928e-18
7.91428e-18
1.31562e-17
2.11088e-17
3.26615e-17
4.86937e-17
6.99022e-17
9.66562e-17
1.29028e-16
1.67038e-16
2.1064e-16
2.58316e-16
3.03895e-16
3.36034e-16
3.47861e-16
3.46177e-16
3.38081e-16
3.21128e-16
2.95266e-16
2.62367e-16
2.25862e-16
1.89714e-16
1.57107e-16
1.29709e-16
1.07757e-16
9.06153e-17
7.73322e-17
6.69909e-17
5.88512e-17
5.23602e-17
4.71215e-17
4.28472e-17
3.93245e-17
3.63898e-17
3.39174e-17
3.181e-17
2.99972e-17
2.84296e-17
2.7076e-17
2.59237e-17
2.49696e-17
2.42205e-17
2.36783e-17
2.33401e-17
2.31887e-17
2.32095e-17
2.34488e-17
2.39527e-17
2.47003e-17
2.57239e-17
2.70884e-17
2.88808e-17
3.12157e-17
3.42448e-17
3.81654e-17
4.32272e-17
4.97599e-17
5.8218e-17
6.92508e-17
8.3832e-17
1.03431e-16
1.30301e-16
1.67978e-16
2.22116e-16
3.02025e-16
4.23533e-16
6.1446e-16
9.25518e-16
1.4536e-15
2.39233e-15
4.14451e-15
7.58572e-15
1.47246e-14
3.04432e-14
6.73685e-14
1.60766e-13
4.17204e-13
1.18526e-12
3.72405e-12
1.31195e-11
5.22698e-11
2.38874e-10
1.283e-09
8.25508e-09
6.56804e-08
6.76766e-07
9.64838e-06
0.000213126
0.00627455
0.037578
0.0491849
0.0496849
0.049746
0.0498139
0.0498805
0.0499343
0.0499703
0.0499896
0.0499974
0.0499996
0.05
0.05
0.05
0.05
0.05
0.05
0.05
0.05
0.05
0.05
0.05
0.05
0.05
0.05
0.05
0.05
0.05
0.05
0.05
0.05
0.05
0.05
0.05
0.05
0.05
2.5225e-28
2.51042e-28
2.55331e-28
2.7236e-28
3.11659e-28
3.84377e-28
5.06055e-28
7.02021e-28
1.01824e-27
1.54188e-27
2.44194e-27
4.05269e-27
7.04778e-27
1.28088e-26
2.42091e-26
4.72897e-26
9.48271e-26
1.93927e-25
4.02045e-25
8.40512e-25
1.76401e-24
3.70349e-24
7.75965e-24
1.62097e-23
3.3777e-23
7.03398e-23
1.46819e-22
3.08132e-22
6.51828e-22
1.39103e-21
2.99043e-21
6.45486e-21
1.39217e-20
2.98447e-20
6.32631e-20
1.31991e-19
2.69997e-19
5.39725e-19
1.05139e-18
1.99094e-18
3.65724e-18
6.5054e-18
1.11892e-17
1.85879e-17
2.97957e-17
4.60452e-17
6.85387e-17
9.82016e-17
1.35478e-16
1.80382e-16
2.32848e-16
2.92733e-16
3.57831e-16
4.19408e-16
4.6184e-16
4.76766e-16
4.74036e-16
4.6231e-16
4.38477e-16
4.02568e-16
3.57212e-16
3.07121e-16
2.5765e-16
2.13062e-16
1.75572e-16
1.45493e-16
1.21967e-16
1.03717e-16
8.95017e-17
7.83152e-17
6.94001e-17
6.22105e-17
5.63488e-17
5.15209e-17
4.75009e-17
4.41146e-17
4.12267e-17
3.87401e-17
3.65872e-17
3.47248e-17
3.31331e-17
3.18047e-17
3.07446e-17
2.99538e-17
2.94271e-17
2.91535e-17
2.91001e-17
2.92888e-17
2.98109e-17
3.06466e-17
3.18142e-17
3.33886e-17
3.54743e-17
3.82049e-17
4.17537e-17
4.63448e-17
5.22579e-17
5.9864e-17
6.96753e-17
8.24238e-17
9.9211e-17
1.21698e-16
1.52434e-16
1.95423e-16
2.57058e-16
3.47861e-16
4.85727e-16
7.02087e-16
1.05436e-15
1.65254e-15
2.71663e-15
4.70537e-15
8.61863e-15
1.67569e-14
3.47344e-14
7.71574e-14
1.85089e-13
4.83445e-13
1.38453e-12
4.39311e-12
1.56617e-11
6.32239e-11
2.92879e-10
1.59826e-09
1.05111e-08
8.51453e-08
9.0058e-07
1.33762e-05
0.000307441
0.00868609
0.0399309
0.049378
0.0496894
0.0497499
0.049818
0.0498839
0.0499367
0.0499717
0.0499902
0.0499976
0.0499996
0.05
0.05
0.05
0.05
0.05
0.05
0.05
0.05
0.05
0.05
0.05
0.05
0.05
0.05
0.05
0.05
0.05
0.05
0.05
0.05
0.05
0.05
0.05
0.05
0.05
5.92795e-28
5.89808e-28
5.99375e-28
6.3708e-28
7.23636e-28
8.83411e-28
1.14977e-27
1.57562e-27
2.25497e-27
3.3628e-27
5.23216e-27
8.50887e-27
1.44669e-26
2.56616e-26
4.72897e-26
9.00412e-26
1.76049e-25
3.51339e-25
7.11647e-25
1.45562e-24
2.99343e-24
6.16724e-24
1.26982e-23
2.61009e-23
5.35783e-23
1.1003e-22
2.267e-22
4.70086e-22
9.83497e-22
2.07797e-21
4.42787e-21
9.48458e-21
2.03235e-20
4.33341e-20
9.14562e-20
1.90154e-19
3.87939e-19
7.73924e-19
1.50529e-18
2.84697e-18
5.22409e-18
9.28243e-18
1.59466e-17
2.6454e-17
4.23358e-17
6.53008e-17
9.69917e-17
1.38634e-16
1.90747e-16
2.53223e-16
3.25842e-16
4.08298e-16
4.97431e-16
5.80938e-16
6.37259e-16
6.56189e-16
6.51925e-16
6.35048e-16
6.01564e-16
5.51655e-16
4.89018e-16
4.20126e-16
3.52232e-16
2.91056e-16
2.39564e-16
1.98178e-16
1.65747e-16
1.40551e-16
1.20911e-16
1.05453e-16
9.3136e-17
8.32059e-17
7.51121e-17
6.84473e-17
6.28998e-17
5.82284e-17
5.42446e-17
5.08131e-17
4.78395e-17
4.52637e-17
4.30574e-17
4.12062e-17
3.97107e-17
3.8569e-17
3.77739e-17
3.73139e-17
3.71474e-17
3.72733e-17
3.77967e-17
3.87344e-17
4.00833e-17
4.19255e-17
4.43888e-17
4.76311e-17
5.18539e-17
5.73141e-17
6.43281e-17
7.33174e-17
8.48669e-17
9.98142e-17
1.19424e-16
1.45605e-16
1.81287e-16
2.31078e-16
3.02319e-16
4.07099e-16
5.65977e-16
8.15052e-16
1.2204e-15
1.90883e-15
3.13419e-15
5.42689e-15
9.94488e-15
1.93567e-14
4.01989e-14
8.95882e-14
2.15945e-13
5.67516e-13
1.63824e-12
5.25288e-12
1.89491e-11
7.74201e-11
3.64508e-10
2.02992e-09
1.35575e-08
1.12965e-07
1.235e-06
1.88515e-05
0.000459188
0.0120148
0.0421487
0.0495038
0.0496937
0.0497541
0.0498223
0.0498874
0.0499391
0.0499731
0.0499908
0.0499978
0.0499997
0.05
0.05
0.05
0.05
0.05
0.05
0.05
0.05
0.05
0.05
0.05
0.05
0.05
0.05
0.05
0.05
0.05
0.05
0.05
0.05
0.05
0.05
0.05
0.05
0.05
1.41919e-27
1.41164e-27
1.4332e-27
1.51795e-27
1.71189e-27
2.06945e-27
2.6638e-27
3.60788e-27
5.09811e-27
7.49362e-27
1.14659e-26
1.82921e-26
3.04381e-26
5.27426e-26
9.48271e-26
1.76049e-25
3.35632e-25
6.53491e-25
1.29265e-24
2.58532e-24
5.20583e-24
1.05169e-23
2.12626e-23
4.29695e-23
8.68218e-23
1.75688e-22
3.57024e-22
7.30877e-22
1.51105e-21
3.15819e-21
6.6646e-21
1.41541e-20
3.01056e-20
6.37883e-20
1.33915e-19
2.77217e-19
5.63536e-19
1.12095e-18
2.175e-18
4.10513e-18
7.5187e-18
1.33351e-17
2.28651e-17
3.78525e-17
6.04398e-17
9.29946e-17
1.37758e-16
1.96343e-16
2.69334e-16
3.56406e-16
4.57069e-16
5.7076e-16
6.93006e-16
8.06571e-16
8.81676e-16
9.05804e-16
8.99319e-16
8.75173e-16
8.28208e-16
7.58862e-16
6.72332e-16
5.77499e-16
4.84175e-16
4.00053e-16
3.2913e-16
2.71997e-16
2.2713e-16
1.92216e-16
1.64971e-16
1.43518e-16