/*--------------------------------*- C++ -*----------------------------------*\
  =========                 |
  \\      /  F ield         | OpenFOAM: The Open Source CFD Toolbox
   \\    /   O peration     | Website:  https://openfoam.org
    \\  /    A nd           | Version:  13
     \\/     M anipulation  |
\*---------------------------------------------------------------------------*/
FoamFile
{
    format      ascii;
    class       volScalarField;
    location    "0.0019";
    object      CO2;
}
// * * * * * * * * * * * * * * * * * * * * * * * * * * * * * * * * * * * * * //

dimensions      [];

internalField   nonuniform List<scalar> 
33334
(
0.137164
0.137164
0.137164
0.137164
0.137164
0.137164
0.137164
0.137164
0.137164
0.137164
0.137164
0.137164
0.137164
0.137164
0.137164
0.137164
0.137164
0.137164
0.137164
0.137164
0.137164
0.137164
0.137164
0.137164
0.137164
0.137164
0.137164
0.137164
0.137164
0.137164
0.137164
0.137164
0.137164
0.137164
0.137164
0.137164
0.137164
0.137164
0.137164
0.137164
0.137164
0.137164
0.137164
0.137164
0.137164
0.137164
0.137164
0.137164
0.137164
0.137164
0.137164
0.137164
0.137164
0.137164
0.137164
0.137164
0.137164
0.137164
0.137164
0.137164
0.137164
0.137164
0.137164
0.137164
0.137164
0.137164
0.137164
0.137164
0.137164
0.137164
0.137164
0.137164
0.137164
0.137164
0.137164
0.137164
0.137164
0.137164
0.137164
0.137164
0.137164
0.137164
0.137164
0.137164
0.137164
0.137164
0.137164
0.137164
0.137164
0.137164
0.137164
0.137164
0.137164
0.137164
0.137164
0.137164
0.137164
0.137164
0.137164
0.137164
0.137164
0.137164
0.137164
0.137164
0.137164
0.137164
0.137164
0.137164
0.137164
0.137164
0.137164
0.137164
0.137164
0.137164
0.137164
0.137164
0.137164
0.137164
0.137164
0.137164
0.137164
0.137164
0.137164
0.137164
0.137164
0.137164
0.137164
0.13716
0.137099
0.135382
0.0928259
0.0159098
0.00111229
0.000767291
0.000583946
0.00039096
0.000225226
0.00010812
4.09496e-05
1.12721e-05
1.99633e-06
1.91428e-07
7.96982e-09
1.12442e-10
8.2238e-13
4.13474e-13
4.13957e-13
4.15193e-13
4.156e-13
4.14224e-13
4.09198e-13
3.99697e-13
3.86331e-13
3.70608e-13
3.54385e-13
3.39157e-13
3.25559e-13
3.13433e-13
3.02253e-13
2.91481e-13
2.80749e-13
2.69898e-13
2.58944e-13
2.47997e-13
2.37186e-13
2.26604e-13
0.137164
0.137164
0.137164
0.137164
0.137164
0.137164
0.137164
0.137164
0.137164
0.137164
0.137164
0.137164
0.137164
0.137164
0.137164
0.137164
0.137164
0.137164
0.137164
0.137164
0.137164
0.137164
0.137164
0.137164
0.137164
0.137164
0.137164
0.137164
0.137164
0.137164
0.137164
0.137164
0.137164
0.137164
0.137164
0.137164
0.137164
0.137164
0.137164
0.137164
0.137164
0.137164
0.137164
0.137164
0.137164
0.137164
0.137164
0.137164
0.137164
0.137164
0.137164
0.137164
0.137164
0.137164
0.137164
0.137164
0.137164
0.137164
0.137164
0.137164
0.137164
0.137164
0.137164
0.137164
0.137164
0.137164
0.137164
0.137164
0.137164
0.137164
0.137164
0.137164
0.137164
0.137164
0.137164
0.137164
0.137164
0.137164
0.137164
0.137164
0.137164
0.137164
0.137164
0.137164
0.137164
0.137164
0.137164
0.137164
0.137164
0.137164
0.137164
0.137164
0.137164
0.137164
0.137164
0.137164
0.137164
0.137164
0.137164
0.137164
0.137164
0.137164
0.137164
0.137164
0.137164
0.137164
0.137164
0.137164
0.137164
0.137164
0.137164
0.137164
0.137164
0.137164
0.137164
0.137164
0.137164
0.137164
0.137164
0.137164
0.137164
0.137164
0.137164
0.137164
0.137164
0.137164
0.137164
0.137161
0.137102
0.135485
0.0946604
0.016821
0.00114335
0.000769413
0.000586162
0.000393042
0.000226677
0.00010895
4.13374e-05
1.14081e-05
2.027e-06
1.95023e-07
8.14048e-09
1.15007e-10
8.32039e-13
4.13511e-13
4.13944e-13
4.15027e-13
4.15287e-13
4.13901e-13
4.08948e-13
3.99523e-13
3.86199e-13
3.70515e-13
3.54333e-13
3.39137e-13
3.25554e-13
3.13433e-13
3.02253e-13
2.91481e-13
2.80749e-13
2.69899e-13
2.58944e-13
2.47996e-13
2.37186e-13
2.26604e-13
0.137164
0.137164
0.137164
0.137164
0.137164
0.137164
0.137164
0.137164
0.137164
0.137164
0.137164
0.137164
0.137164
0.137164
0.137164
0.137164
0.137164
0.137164
0.137164
0.137164
0.137164
0.137164
0.137164
0.137164
0.137164
0.137164
0.137164
0.137164
0.137164
0.137164
0.137164
0.137164
0.137164
0.137164
0.137164
0.137164
0.137164
0.137164
0.137164
0.137164
0.137164
0.137164
0.137164
0.137164
0.137164
0.137164
0.137164
0.137164
0.137164
0.137164
0.137164
0.137164
0.137164
0.137164
0.137164
0.137164
0.137164
0.137164
0.137164
0.137164
0.137164
0.137164
0.137164
0.137164
0.137164
0.137164
0.137164
0.137164
0.137164
0.137164
0.137164
0.137164
0.137164
0.137164
0.137164
0.137164
0.137164
0.137164
0.137164
0.137164
0.137164
0.137164
0.137164
0.137164
0.137164
0.137164
0.137164
0.137164
0.137164
0.137164
0.137164
0.137164
0.137164
0.137164
0.137164
0.137164
0.137164
0.137164
0.137164
0.137164
0.137164
0.137164
0.137164
0.137164
0.137164
0.137164
0.137164
0.137164
0.137164
0.137164
0.137164
0.137164
0.137164
0.137164
0.137164
0.137164
0.137164
0.137164
0.137164
0.137164
0.137164
0.137164
0.137164
0.137164
0.137164
0.137164
0.137164
0.13716
0.137099
0.135375
0.0932104
0.0161764
0.00112345
0.000768536
0.000585215
0.000392067
0.000225989
0.000108583
4.11923e-05
1.13667e-05
2.01884e-06
1.94042e-07
8.0843e-09
1.13856e-10
8.25276e-13
4.12602e-13
4.12989e-13
4.14023e-13
4.14348e-13
4.13117e-13
4.08399e-13
3.99144e-13
3.85918e-13
3.70316e-13
3.54212e-13
3.39072e-13
3.25522e-13
3.13419e-13
3.02248e-13
2.91478e-13
2.80746e-13
2.69895e-13
2.58939e-13
2.47992e-13
2.37181e-13
2.26599e-13
0.137164
0.137164
0.137164
0.137164
0.137164
0.137164
0.137164
0.137164
0.137164
0.137164
0.137164
0.137164
0.137164
0.137164
0.137164
0.137164
0.137164
0.137164
0.137164
0.137164
0.137164
0.137164
0.137164
0.137164
0.137164
0.137164
0.137164
0.137164
0.137164
0.137164
0.137164
0.137164
0.137164
0.137164
0.137164
0.137164
0.137164
0.137164
0.137164
0.137164
0.137164
0.137164
0.137164
0.137164
0.137164
0.137164
0.137164
0.137164
0.137164
0.137164
0.137164
0.137164
0.137164
0.137164
0.137164
0.137164
0.137164
0.137164
0.137164
0.137164
0.137164
0.137164
0.137164
0.137164
0.137164
0.137164
0.137164
0.137164
0.137164
0.137164
0.137164
0.137164
0.137164
0.137164
0.137164
0.137164
0.137164
0.137164
0.137164
0.137164
0.137164
0.137164
0.137164
0.137164
0.137164
0.137164
0.137164
0.137164
0.137164
0.137164
0.137164
0.137164
0.137164
0.137164
0.137164
0.137164
0.137164
0.137164
0.137164
0.137164
0.137164
0.137164
0.137164
0.137164
0.137164
0.137164
0.137164
0.137164
0.137164
0.137164
0.137164
0.137164
0.137164
0.137164
0.137164
0.137164
0.137164
0.137164
0.137164
0.137164
0.137164
0.137164
0.137164
0.137164
0.137164
0.137164
0.137164
0.13716
0.137095
0.135235
0.0908223
0.0152083
0.00109468
0.000766113
0.000582772
0.000389842
0.000224451
0.000107723
4.08078e-05
1.12357e-05
1.98837e-06
1.90041e-07
7.85461e-09
1.09494e-10
8.03058e-13
4.11009e-13
4.11384e-13
4.1247e-13
4.12953e-13
4.11934e-13
4.0755e-13
3.98554e-13
3.85489e-13
3.70004e-13
3.54008e-13
3.3895e-13
3.25452e-13
3.13383e-13
3.0223e-13
2.91469e-13
2.8074e-13
2.69888e-13
2.58932e-13
2.47984e-13
2.37173e-13
2.26591e-13
0.137164
0.137164
0.137164
0.137164
0.137164
0.137164
0.137164
0.137164
0.137164
0.137164
0.137164
0.137164
0.137164
0.137164
0.137164
0.137164
0.137164
0.137164
0.137164
0.137164
0.137164
0.137164
0.137164
0.137164
0.137164
0.137164
0.137164
0.137164
0.137164
0.137164
0.137164
0.137164
0.137164
0.137164
0.137164
0.137164
0.137164
0.137164
0.137164
0.137164
0.137164
0.137164
0.137164
0.137164
0.137164
0.137164
0.137164
0.137164
0.137164
0.137164
0.137164
0.137164
0.137164
0.137164
0.137164
0.137164
0.137164
0.137164
0.137164
0.137164
0.137164
0.137164
0.137164
0.137164
0.137164
0.137164
0.137164
0.137164
0.137164
0.137164
0.137164
0.137164
0.137164
0.137164
0.137164
0.137164
0.137164
0.137164
0.137164
0.137164
0.137164
0.137164
0.137164
0.137164
0.137164
0.137164
0.137164
0.137164
0.137164
0.137164
0.137164
0.137164
0.137164
0.137164
0.137164
0.137164
0.137164
0.137164
0.137164
0.137164
0.137164
0.137164
0.137164
0.137164
0.137164
0.137164
0.137164
0.137164
0.137164
0.137164
0.137164
0.137164
0.137164
0.137164
0.137164
0.137164
0.137164
0.137164
0.137164
0.137164
0.137164
0.137164
0.137164
0.137164
0.137164
0.137164
0.137164
0.13716
0.137087
0.135001
0.0875347
0.0139781
0.00106299
0.000762783
0.000579529
0.000386962
0.000222413
0.000106507
4.02157e-05
1.10185e-05
1.93599e-06
1.832e-07
7.47391e-09
1.02572e-10
7.69606e-13
4.0904e-13
4.09421e-13
4.10574e-13
4.11221e-13
4.10405e-13
4.06392e-13
3.97723e-13
3.84882e-13
3.69564e-13
3.53706e-13
3.38759e-13
3.25337e-13
3.13316e-13
3.02197e-13
2.91455e-13
2.80734e-13
2.69885e-13
2.58929e-13
2.47979e-13
2.37167e-13
2.26585e-13
0.137164
0.137164
0.137164
0.137164
0.137164
0.137164
0.137164
0.137164
0.137164
0.137164
0.137164
0.137164
0.137164
0.137164
0.137164
0.137164
0.137164
0.137164
0.137164
0.137164
0.137164
0.137164
0.137164
0.137164
0.137164
0.137164
0.137164
0.137164
0.137164
0.137164
0.137164
0.137164
0.137164
0.137164
0.137164
0.137164
0.137164
0.137164
0.137164
0.137164
0.137164
0.137164
0.137164
0.137164
0.137164
0.137164
0.137164
0.137164
0.137164
0.137164
0.137164
0.137164
0.137164
0.137164
0.137164
0.137164
0.137164
0.137164
0.137164
0.137164
0.137164
0.137164
0.137164
0.137164
0.137164
0.137164
0.137164
0.137164
0.137164
0.137164
0.137164
0.137164
0.137164
0.137164
0.137164
0.137164
0.137164
0.137164
0.137164
0.137164
0.137164
0.137164
0.137164
0.137164
0.137164
0.137164
0.137164
0.137164
0.137164
0.137164
0.137164
0.137164
0.137164
0.137164
0.137164
0.137164
0.137164
0.137164
0.137164
0.137164
0.137164
0.137164
0.137164
0.137164
0.137164
0.137164
0.137164
0.137164
0.137164
0.137164
0.137164
0.137164
0.137164
0.137164
0.137164
0.137164
0.137164
0.137164
0.137164
0.137164
0.137164
0.137164
0.137164
0.137164
0.137164
0.137164
0.137164
0.137159
0.137078
0.1347
0.0836511
0.0126382
0.00103102
0.000758552
0.00057537
0.000383277
0.000219747
0.000104871
3.94048e-05
1.07221e-05
1.86607e-06
1.7438e-07
7.003e-09
9.4362e-11
7.31308e-13
4.06745e-13
4.07141e-13
4.08368e-13
4.09182e-13
4.0855e-13
4.04916e-13
3.9662e-13
3.84059e-13
3.68961e-13
3.53286e-13
3.38483e-13
3.25163e-13
3.1321e-13
3.02138e-13
2.91429e-13
2.80726e-13
2.69884e-13
2.58929e-13
2.4798e-13
2.37167e-13
2.26584e-13
0.137164
0.137164
0.137164
0.137164
0.137164
0.137164
0.137164
0.137164
0.137164
0.137164
0.137164
0.137164
0.137164
0.137164
0.137164
0.137164
0.137164
0.137164
0.137164
0.137164
0.137164
0.137164
0.137164
0.137164
0.137164
0.137164
0.137164
0.137164
0.137164
0.137164
0.137164
0.137164
0.137164
0.137164
0.137164
0.137164
0.137164
0.137164
0.137164
0.137164
0.137164
0.137164
0.137164
0.137164
0.137164
0.137164
0.137164
0.137164
0.137164
0.137164
0.137164
0.137164
0.137164
0.137164
0.137164
0.137164
0.137164
0.137164
0.137164
0.137164
0.137164
0.137164
0.137164
0.137164
0.137164
0.137164
0.137164
0.137164
0.137164
0.137164
0.137164
0.137164
0.137164
0.137164
0.137164
0.137164
0.137164
0.137164
0.137164
0.137164
0.137164
0.137164
0.137164
0.137164
0.137164
0.137164
0.137164
0.137164
0.137164
0.137164
0.137164
0.137164
0.137164
0.137164
0.137164
0.137164
0.137164
0.137164
0.137164
0.137164
0.137164
0.137164
0.137164
0.137164
0.137164
0.137164
0.137164
0.137164
0.137164
0.137164
0.137164
0.137164
0.137164
0.137164
0.137164
0.137164
0.137164
0.137164
0.137164
0.137164
0.137164
0.137164
0.137164
0.137164
0.137164
0.137164
0.137164
0.137159
0.137064
0.134273
0.0789948
0.0111523
0.000999114
0.000753487
0.000570294
0.000378776
0.000216468
0.000102856
3.84142e-05
1.03662e-05
1.78407e-06
1.64318e-07
6.48194e-09
8.55583e-11
6.91243e-13
4.04126e-13
4.04546e-13
4.05862e-13
4.06851e-13
4.06387e-13
4.03123e-13
3.95225e-13
3.8298e-13
3.68146e-13
3.52708e-13
3.38095e-13
3.2491e-13
3.13048e-13
3.0204e-13
2.91377e-13
2.80705e-13
2.6988e-13
2.58931e-13
2.47983e-13
2.37169e-13
2.26585e-13
0.137164
0.137164
0.137164
0.137164
0.137164
0.137164
0.137164
0.137164
0.137164
0.137164
0.137164
0.137164
0.137164
0.137164
0.137164
0.137164
0.137164
0.137164
0.137164
0.137164
0.137164
0.137164
0.137164
0.137164
0.137164
0.137164
0.137164
0.137164
0.137164
0.137164
0.137164
0.137164
0.137164
0.137164
0.137164
0.137164
0.137164
0.137164
0.137164
0.137164
0.137164
0.137164
0.137164
0.137164
0.137164
0.137164
0.137164
0.137164
0.137164
0.137164
0.137164
0.137164
0.137164
0.137164
0.137164
0.137164
0.137164
0.137164
0.137164
0.137164
0.137164
0.137164
0.137164
0.137164
0.137164
0.137164
0.137164
0.137164
0.137164
0.137164
0.137164
0.137164
0.137164
0.137164
0.137164
0.137164
0.137164
0.137164
0.137164
0.137164
0.137164
0.137164
0.137164
0.137164
0.137164
0.137164
0.137164
0.137164
0.137164
0.137164
0.137164
0.137164
0.137164
0.137164
0.137164
0.137164
0.137164
0.137164
0.137164
0.137164
0.137164
0.137164
0.137164
0.137164
0.137164
0.137164
0.137164
0.137164
0.137164
0.137164
0.137164
0.137164
0.137164
0.137164
0.137164
0.137164
0.137164
0.137164
0.137164
0.137164
0.137164
0.137164
0.137164
0.137164
0.137164
0.137164
0.137164
0.137158
0.137045
0.133693
0.0736603
0.00958703
0.000969813
0.000747567
0.000564252
0.000373437
0.000212587
0.000100492
3.72699e-05
9.96269e-06
1.69307e-06
1.53408e-07
5.93077e-09
7.64842e-11
6.50783e-13
4.01208e-13
4.01659e-13
4.03077e-13
4.04246e-13
4.03931e-13
4.01018e-13
3.93526e-13
3.8162e-13
3.6708e-13
3.5192e-13
3.37553e-13
3.24551e-13
3.12811e-13
3.01886e-13
2.91285e-13
2.80659e-13
2.69863e-13
2.58929e-13
2.47986e-13
2.37173e-13
2.26588e-13
0.137164
0.137164
0.137164
0.137164
0.137164
0.137164
0.137164
0.137164
0.137164
0.137164
0.137164
0.137164
0.137164
0.137164
0.137164
0.137164
0.137164
0.137164
0.137164
0.137164
0.137164
0.137164
0.137164
0.137164
0.137164
0.137164
0.137164
0.137164
0.137164
0.137164
0.137164
0.137164
0.137164
0.137164
0.137164
0.137164
0.137164
0.137164
0.137164
0.137164
0.137164
0.137164
0.137164
0.137164
0.137164
0.137164
0.137164
0.137164
0.137164
0.137164
0.137164
0.137164
0.137164
0.137164
0.137164
0.137164
0.137164
0.137164
0.137164
0.137164
0.137164
0.137164
0.137164
0.137164
0.137164
0.137164
0.137164
0.137164
0.137164
0.137164
0.137164
0.137164
0.137164
0.137164
0.137164
0.137164
0.137164
0.137164
0.137164
0.137164
0.137164
0.137164
0.137164
0.137164
0.137164
0.137164
0.137164
0.137164
0.137164
0.137164
0.137164
0.137164
0.137164
0.137164
0.137164
0.137164
0.137164
0.137164
0.137164
0.137164
0.137164
0.137164
0.137164
0.137164
0.137164
0.137164
0.137164
0.137164
0.137164
0.137164
0.137164
0.137164
0.137164
0.137164
0.137164
0.137164
0.137164
0.137164
0.137164
0.137164
0.137164
0.137164
0.137164
0.137164
0.137164
0.137164
0.137164
0.137157
0.13702
0.132864
0.0676312
0.00803963
0.000944435
0.000740826
0.000557263
0.00036732
0.000208167
9.78274e-05
3.59981e-05
9.5213e-06
1.59529e-06
1.41918e-07
5.3637e-09
6.73929e-11
6.11102e-13
3.98024e-13
3.98509e-13
4.00033e-13
4.01378e-13
4.01196e-13
3.98608e-13
3.91518e-13
3.79964e-13
3.65734e-13
3.50882e-13
3.36806e-13
3.24043e-13
3.12472e-13
3.01658e-13
2.91137e-13
2.80572e-13
2.69821e-13
2.58914e-13
2.47985e-13
2.37177e-13
2.26593e-13
0.137164
0.137164
0.137164
0.137164
0.137164
0.137164
0.137164
0.137164
0.137164
0.137164
0.137164
0.137164
0.137164
0.137164
0.137164
0.137164
0.137164
0.137164
0.137164
0.137164
0.137164
0.137164
0.137164
0.137164
0.137164
0.137164
0.137164
0.137164
0.137164
0.137164
0.137164
0.137164
0.137164
0.137164
0.137164
0.137164
0.137164
0.137164
0.137164
0.137164
0.137164
0.137164
0.137164
0.137164
0.137164
0.137164
0.137164
0.137164
0.137164
0.137164
0.137164
0.137164
0.137164
0.137164
0.137164
0.137164
0.137164
0.137164
0.137164
0.137164
0.137164
0.137164
0.137164
0.137164
0.137164
0.137164
0.137164
0.137164
0.137164
0.137164
0.137164
0.137164
0.137164
0.137164
0.137164
0.137164
0.137164
0.137164
0.137164
0.137164
0.137164
0.137164
0.137164
0.137164
0.137164
0.137164
0.137164
0.137164
0.137164
0.137164
0.137164
0.137164
0.137164
0.137164
0.137164
0.137164
0.137164
0.137164
0.137164
0.137164
0.137164
0.137164
0.137164
0.137164
0.137164
0.137164
0.137164
0.137164
0.137164
0.137164
0.137164
0.137164
0.137164
0.137164
0.137164
0.137164
0.137164
0.137164
0.137164
0.137164
0.137164
0.137164
0.137164
0.137164
0.137164
0.137164
0.137164
0.137155
0.136984
0.131716
0.0611671
0.00657217
0.000923143
0.000733319
0.00054939
0.00036051
0.000203281
9.49085e-05
3.46205e-05
9.04971e-06
1.49261e-06
1.30108e-07
4.79543e-09
5.85494e-11
5.73363e-13
3.94603e-13
3.95123e-13
3.9675e-13
3.98262e-13
3.98195e-13
3.95903e-13
3.89202e-13
3.78006e-13
3.64095e-13
3.49566e-13
3.35812e-13
3.23336e-13
3.1199e-13
3.01334e-13
2.90917e-13
2.8043e-13
2.69739e-13
2.58875e-13
2.47971e-13
2.37177e-13
2.26597e-13
0.137164
0.137164
0.137164
0.137164
0.137164
0.137164
0.137164
0.137164
0.137164
0.137164
0.137164
0.137164
0.137164
0.137164
0.137164
0.137164
0.137164
0.137164
0.137164
0.137164
0.137164
0.137164
0.137164
0.137164
0.137164
0.137164
0.137164
0.137164
0.137164
0.137164
0.137164
0.137164
0.137164
0.137164
0.137164
0.137164
0.137164
0.137164
0.137164
0.137164
0.137164
0.137164
0.137164
0.137164
0.137164
0.137164
0.137164
0.137164
0.137164
0.137164
0.137164
0.137164
0.137164
0.137164
0.137164
0.137164
0.137164
0.137164
0.137164
0.137164
0.137164
0.137164
0.137164
0.137164
0.137164
0.137164
0.137164
0.137164
0.137164
0.137164
0.137164
0.137164
0.137164
0.137164
0.137164
0.137164
0.137164
0.137164
0.137164
0.137164
0.137164
0.137164
0.137164
0.137164
0.137164
0.137164
0.137164
0.137164
0.137164
0.137164
0.137164
0.137164
0.137164
0.137164
0.137164
0.137164
0.137164
0.137164
0.137164
0.137164
0.137164
0.137164
0.137164
0.137164
0.137164
0.137164
0.137164
0.137164
0.137164
0.137164
0.137164
0.137164
0.137164
0.137164
0.137164
0.137164
0.137164
0.137164
0.137164
0.137164
0.137164
0.137164
0.137164
0.137164
0.137164
0.137164
0.137163
0.137153
0.136933
0.130138
0.0544241
0.00519276
0.000905314
0.000725123
0.000540722
0.000353088
0.000197993
9.1774e-05
3.31558e-05
8.55498e-06
1.38683e-06
1.18227e-07
4.24002e-09
5.01899e-11
5.38478e-13
3.90967e-13
3.91522e-13
3.93248e-13
3.9491e-13
3.94942e-13
3.92913e-13
3.86584e-13
3.75745e-13
3.62159e-13
3.4796e-13
3.34546e-13
3.22391e-13
3.11319e-13
3.00874e-13
2.90605e-13
2.80219e-13
2.69604e-13
2.58798e-13
2.47935e-13
2.37164e-13
2.26597e-13
0.137164
0.137164
0.137164
0.137164
0.137164
0.137164
0.137164
0.137164
0.137164
0.137164
0.137164
0.137164
0.137164
0.137164
0.137164
0.137164
0.137164
0.137164
0.137164
0.137164
0.137164
0.137164
0.137164
0.137164
0.137164
0.137164
0.137164
0.137164
0.137164
0.137164
0.137164
0.137164
0.137164
0.137164
0.137164
0.137164
0.137164
0.137164
0.137164
0.137164
0.137164
0.137164
0.137164
0.137164
0.137164
0.137164
0.137164
0.137164
0.137164
0.137164
0.137164
0.137164
0.137164
0.137164
0.137164
0.137164
0.137164
0.137164
0.137164
0.137164
0.137164
0.137164
0.137164
0.137164
0.137164
0.137164
0.137164
0.137164
0.137164
0.137164
0.137164
0.137164
0.137164
0.137164
0.137164
0.137164
0.137164
0.137164
0.137164
0.137164
0.137164
0.137164
0.137164
0.137164
0.137164
0.137164
0.137164
0.137164
0.137164
0.137164
0.137164
0.137164
0.137164
0.137164
0.137164
0.137164
0.137164
0.137164
0.137164
0.137164
0.137164
0.137164
0.137164
0.137164
0.137164
0.137164
0.137164
0.137164
0.137164
0.137164
0.137164
0.137164
0.137164
0.137164
0.137164
0.137164
0.137164
0.137164
0.137164
0.137164
0.137164
0.137164
0.137164
0.137164
0.137164
0.137164
0.137163
0.137149
0.136859
0.127851
0.0475322
0.00397605
0.000890168
0.00071629
0.000531336
0.000345121
0.000192351
8.84546e-05
3.16208e-05
8.04402e-06
1.27975e-06
1.06506e-07
3.70902e-09
4.24796e-11
5.06947e-13
3.87139e-13
3.87726e-13
3.89539e-13
3.91333e-13
3.9146e-13
3.89649e-13
3.8367e-13
3.73185e-13
3.59925e-13
3.4606e-13
3.32996e-13
3.21182e-13
3.10417e-13
3.00231e-13
2.90163e-13
2.79917e-13
2.694e-13
2.58669e-13
2.47862e-13
2.37129e-13
2.26585e-13
0.137164
0.137164
0.137164
0.137164
0.137164
0.137164
0.137164
0.137164
0.137164
0.137164
0.137164
0.137164
0.137164
0.137164
0.137164
0.137164
0.137164
0.137164
0.137164
0.137164
0.137164
0.137164
0.137164
0.137164
0.137164
0.137164
0.137164
0.137164
0.137164
0.137164
0.137164
0.137164
0.137164
0.137164
0.137164
0.137164
0.137164
0.137164
0.137164
0.137164
0.137164
0.137164
0.137164
0.137164
0.137164
0.137164
0.137164
0.137164
0.137164
0.137164
0.137164
0.137164
0.137164
0.137164
0.137164
0.137164
0.137164
0.137164
0.137164
0.137164
0.137164
0.137164
0.137164
0.137164
0.137164
0.137164
0.137164
0.137164
0.137164
0.137164
0.137164
0.137164
0.137164
0.137164
0.137164
0.137164
0.137164
0.137164
0.137164
0.137164
0.137164
0.137164
0.137164
0.137164
0.137164
0.137164
0.137164
0.137164
0.137164
0.137164
0.137164
0.137164
0.137164
0.137164
0.137164
0.137164
0.137164
0.137164
0.137164
0.137164
0.137164
0.137164
0.137164
0.137164
0.137164
0.137164
0.137164
0.137164
0.137164
0.137164
0.137164
0.137164
0.137164
0.137164
0.137164
0.137164
0.137164
0.137164
0.137164
0.137164
0.137164
0.137164
0.137164
0.137164
0.137164
0.137164
0.137163
0.137145
0.136749
0.124636
0.0407465
0.00299064
0.000876746
0.000706827
0.000521266
0.00033666
0.000186396
8.49791e-05
3.00317e-05
7.52352e-06
1.17304e-06
9.51469e-08
3.2111e-09
3.55147e-11
4.78928e-13
3.83135e-13
3.83752e-13
3.85643e-13
3.87547e-13
3.87759e-13
3.86127e-13
3.80473e-13
3.70332e-13
3.57398e-13
3.43868e-13
3.31157e-13
3.19695e-13
3.09257e-13
2.99363e-13
2.89544e-13
2.79492e-13
2.69111e-13
2.58475e-13
2.47739e-13
2.37059e-13
2.26552e-13
0.137164
0.137164
0.137164
0.137164
0.137164
0.137164
0.137164
0.137164
0.137164
0.137164
0.137164
0.137164
0.137164
0.137164
0.137164
0.137164
0.137164
0.137164
0.137164
0.137164
0.137164
0.137164
0.137164
0.137164
0.137164
0.137164
0.137164
0.137164
0.137164
0.137164
0.137164
0.137164
0.137164
0.137164
0.137164
0.137164
0.137164
0.137164
0.137164
0.137164
0.137164
0.137164
0.137164
0.137164
0.137164
0.137164
0.137164
0.137164
0.137164
0.137164
0.137164
0.137164
0.137164
0.137164
0.137164
0.137164
0.137164
0.137164
0.137164
0.137164
0.137164
0.137164
0.137164
0.137164
0.137164
0.137164
0.137164
0.137164
0.137164
0.137164
0.137164
0.137164
0.137164
0.137164
0.137164
0.137164
0.137164
0.137164
0.137164
0.137164
0.137164
0.137164
0.137164
0.137164
0.137164
0.137164
0.137164
0.137164
0.137164
0.137164
0.137164
0.137164
0.137164
0.137164
0.137164
0.137164
0.137164
0.137164
0.137164
0.137164
0.137164
0.137164
0.137164
0.137164
0.137164
0.137164
0.137164
0.137164
0.137164
0.137164
0.137164
0.137164
0.137164
0.137164
0.137164
0.137164
0.137164
0.137164
0.137164
0.137164
0.137164
0.137164
0.137164
0.137164
0.137164
0.137164
0.137162
0.137138
0.13658
0.119951
0.0340772
0.00223617
0.000864273
0.000696736
0.000510569
0.000327754
0.000180169
8.13762e-05
2.84049e-05
7e-06
1.06819e-06
8.43058e-08
2.75192e-09
2.93354e-11
4.5435e-13
3.78971e-13
3.79615e-13
3.81573e-13
3.83569e-13
3.83853e-13
3.82367e-13
3.77005e-13
3.67196e-13
3.54585e-13
3.41387e-13
3.2903e-13
3.17924e-13
3.07826e-13
2.98245e-13
2.88706e-13
2.78895e-13
2.68701e-13
2.58197e-13
2.47553e-13
2.36942e-13
2.26485e-13
0.137164
0.137164
0.137164
0.137164
0.137164
0.137164
0.137164
0.137164
0.137164
0.137164
0.137164
0.137164
0.137164
0.137164
0.137164
0.137164
0.137164
0.137164
0.137164
0.137164
0.137164
0.137164
0.137164
0.137164
0.137164
0.137164
0.137164
0.137164
0.137164
0.137164
0.137164
0.137164
0.137164
0.137164
0.137164
0.137164
0.137164
0.137164
0.137164
0.137164
0.137164
0.137164
0.137164
0.137164
0.137164
0.137164
0.137164
0.137164
0.137164
0.137164
0.137164
0.137164
0.137164
0.137164
0.137164
0.137164
0.137164
0.137164
0.137164
0.137164
0.137164
0.137164
0.137164
0.137164
0.137164
0.137164
0.137164
0.137164
0.137164
0.137164
0.137164
0.137164
0.137164
0.137164
0.137164
0.137164
0.137164
0.137164
0.137164
0.137164
0.137164
0.137164
0.137164
0.137164
0.137164
0.137164
0.137164
0.137164
0.137164
0.137164
0.137164
0.137164
0.137164
0.137164
0.137164
0.137164
0.137164
0.137164
0.137164
0.137164
0.137164
0.137164
0.137164
0.137164
0.137164
0.137164
0.137164
0.137164
0.137164
0.137164
0.137164
0.137164
0.137164
0.137164
0.137164
0.137164
0.137164
0.137164
0.137164
0.137164
0.137164
0.137164
0.137164
0.137164
0.137164
0.137164
0.137162
0.137128
0.136321
0.113336
0.0276225
0.00170644
0.000852174
0.000686015
0.00049929
0.000318458
0.000173716
7.76793e-05
2.6758e-05
6.47974e-06
9.66472e-07
7.40973e-08
2.33451e-09
2.39393e-11
4.33e-13
3.74661e-13
3.75332e-13
3.77348e-13
3.79414e-13
3.79756e-13
3.78386e-13
3.73284e-13
3.63789e-13
3.51493e-13
3.38624e-13
3.26618e-13
3.1587e-13
3.06117e-13
2.96859e-13
2.87622e-13
2.78084e-13
2.68125e-13
2.57803e-13
2.47286e-13
2.36764e-13
2.26373e-13
0.137164
0.137164
0.137164
0.137164
0.137164
0.137164
0.137164
0.137164
0.137164
0.137164
0.137164
0.137164
0.137164
0.137164
0.137164
0.137164
0.137164
0.137164
0.137164
0.137164
0.137164
0.137164
0.137164
0.137164
0.137164
0.137164
0.137164
0.137164
0.137164
0.137164
0.137164
0.137164
0.137164
0.137164
0.137164
0.137164
0.137164
0.137164
0.137164
0.137164
0.137164
0.137164
0.137164
0.137164
0.137164
0.137164
0.137164
0.137164
0.137164
0.137164
0.137164
0.137164
0.137164
0.137164
0.137164
0.137164
0.137164
0.137164
0.137164
0.137164
0.137164
0.137164
0.137164
0.137164
0.137164
0.137164
0.137164
0.137164
0.137164
0.137164
0.137164
0.137164
0.137164
0.137164
0.137164
0.137164
0.137164
0.137164
0.137164
0.137164
0.137164
0.137164
0.137164
0.137164
0.137164
0.137164
0.137164
0.137164
0.137164
0.137164
0.137164
0.137164
0.137164
0.137164
0.137164
0.137164
0.137164
0.137164
0.137164
0.137164
0.137164
0.137164
0.137164
0.137164
0.137164
0.137164
0.137164
0.137164
0.137164
0.137164
0.137164
0.137164
0.137164
0.137164
0.137164
0.137164
0.137164
0.137164
0.137164
0.137164
0.137164
0.137164
0.137164
0.137164
0.137164
0.137164
0.137161
0.137113
0.135905
0.104204
0.0215383
0.00136112
0.000840135
0.000674618
0.000487485
0.000308826
0.000167083
7.39202e-05
2.51078e-05
5.9684e-06
8.6894e-07
6.46031e-08
1.96018e-09
1.92986e-11
4.14589e-13
3.70219e-13
3.70915e-13
3.72981e-13
3.75098e-13
3.75481e-13
3.74203e-13
3.69326e-13
3.60123e-13
3.48134e-13
3.35589e-13
3.2393e-13
3.13536e-13
3.04128e-13
2.95199e-13
2.86274e-13
2.77031e-13
2.67341e-13
2.57248e-13
2.46908e-13
2.36509e-13
2.26202e-13
0.137164
0.137164
0.137164
0.137164
0.137164
0.137164
0.137164
0.137164
0.137164
0.137164
0.137164
0.137164
0.137164
0.137164
0.137164
0.137164
0.137164
0.137164
0.137164
0.137164
0.137164
0.137164
0.137164
0.137164
0.137164
0.137164
0.137164
0.137164
0.137164
0.137164
0.137164
0.137164
0.137164
0.137164
0.137164
0.137164
0.137164
0.137164
0.137164
0.137164
0.137164
0.137164
0.137164
0.137164
0.137164
0.137164
0.137164
0.137164
0.137164
0.137164
0.137164
0.137164
0.137164
0.137164
0.137164
0.137164
0.137164
0.137164
0.137164
0.137164
0.137164
0.137164
0.137164
0.137164
0.137164
0.137164
0.137164
0.137164
0.137164
0.137164
0.137164
0.137164
0.137164
0.137164
0.137164
0.137164
0.137164
0.137164
0.137164
0.137164
0.137164
0.137164
0.137164
0.137164
0.137164
0.137164
0.137164
0.137164
0.137164
0.137164
0.137164
0.137164
0.137164
0.137164
0.137164
0.137164
0.137164
0.137164
0.137164
0.137164
0.137164
0.137164
0.137164
0.137164
0.137164
0.137164
0.137164
0.137164
0.137164
0.137164
0.137164
0.137164
0.137164
0.137164
0.137164
0.137164
0.137164
0.137164
0.137164
0.137164
0.137164
0.137164
0.137164
0.137164
0.137164
0.137164
0.13716
0.137089
0.13524
0.0926278
0.0160473
0.00115486
0.000827997
0.000662488
0.000475211
0.000298917
0.000160313
7.01255e-05
2.34671e-05
5.47013e-06
7.76306e-07
5.58679e-08
1.6287e-09
1.53679e-11
3.98791e-13
3.65658e-13
3.66378e-13
3.68487e-13
3.70635e-13
3.71042e-13
3.69835e-13
3.65148e-13
3.56214e-13
3.44521e-13
3.32293e-13
3.20975e-13
3.1093e-13
3.01864e-13
2.93263e-13
2.84654e-13
2.75717e-13
2.66317e-13
2.56489e-13
2.46373e-13
2.36145e-13
2.25957e-13
0.137164
0.137164
0.137164
0.137164
0.137164
0.137164
0.137164
0.137164
0.137164
0.137164
0.137164
0.137164
0.137164
0.137164
0.137164
0.137164
0.137164
0.137164
0.137164
0.137164
0.137164
0.137164
0.137164
0.137164
0.137164
0.137164
0.137164
0.137164
0.137164
0.137164
0.137164
0.137164
0.137164
0.137164
0.137164
0.137164
0.137164
0.137164
0.137164
0.137164
0.137164
0.137164
0.137164
0.137164
0.137164
0.137164
0.137164
0.137164
0.137164
0.137164
0.137164
0.137164
0.137164
0.137164
0.137164
0.137164
0.137164
0.137164
0.137164
0.137164
0.137164
0.137164
0.137164
0.137164
0.137164
0.137164
0.137164
0.137164
0.137164
0.137164
0.137164
0.137164
0.137164
0.137164
0.137164
0.137164
0.137164
0.137164
0.137164
0.137164
0.137164
0.137164
0.137164
0.137164
0.137164
0.137164
0.137164
0.137164
0.137164
0.137164
0.137164
0.137164
0.137164
0.137164
0.137164
0.137164
0.137164
0.137164
0.137164
0.137164
0.137164
0.137164
0.137164
0.137164
0.137164
0.137164
0.137164
0.137164
0.137164
0.137164
0.137164
0.137164
0.137164
0.137164
0.137164
0.137164
0.137164
0.137164
0.137164
0.137164
0.137164
0.137164
0.137164
0.137164
0.137164
0.137164
0.137158
0.137051
0.134132
0.0792511
0.0113083
0.00104015
0.000815765
0.00064958
0.000462538
0.000288792
0.000153454
6.63253e-05
2.18491e-05
4.98867e-06
6.89115e-07
4.79127e-08
1.33875e-09
1.20882e-11
3.85254e-13
3.60991e-13
3.61736e-13
3.6388e-13
3.6604e-13
3.66454e-13
3.65299e-13
3.6077e-13
3.52078e-13
3.40669e-13
3.2875e-13
3.17765e-13
3.08062e-13
2.9933e-13
2.91054e-13
2.82761e-13
2.74134e-13
2.65037e-13
2.55496e-13
2.4564e-13
2.35631e-13
2.25608e-13
0.137164
0.137164
0.137164
0.137164
0.137164
0.137164
0.137164
0.137164
0.137164
0.137164
0.137164
0.137164
0.137164
0.137164
0.137164
0.137164
0.137164
0.137164
0.137164
0.137164
0.137164
0.137164
0.137164
0.137164
0.137164
0.137164
0.137164
0.137164
0.137164
0.137164
0.137164
0.137164
0.137164
0.137164
0.137164
0.137164
0.137164
0.137164
0.137164
0.137164
0.137164
0.137164
0.137164
0.137164
0.137164
0.137164
0.137164
0.137164
0.137164
0.137164
0.137164
0.137164
0.137164
0.137164
0.137164
0.137164
0.137164
0.137164
0.137164
0.137164
0.137164
0.137164
0.137164
0.137164
0.137164
0.137164
0.137164
0.137164
0.137164
0.137164
0.137164
0.137164
0.137164