/*--------------------------------*- C++ -*----------------------------------*\
  =========                 |
  \\      /  F ield         | OpenFOAM: The Open Source CFD Toolbox
   \\    /   O peration     | Website:  https://openfoam.org
    \\  /    A nd           | Version:  13
     \\/     M anipulation  |
\*---------------------------------------------------------------------------*/
FoamFile
{
    format      ascii;
    class       volScalarField;
    location    "0.0019";
    object      H2O;
}
// * * * * * * * * * * * * * * * * * * * * * * * * * * * * * * * * * * * * * //

dimensions      [];

internalField   nonuniform List<scalar> 
33334
(
0.112295
0.112295
0.112295
0.112295
0.112295
0.112295
0.112295
0.112295
0.112295
0.112295
0.112295
0.112295
0.112295
0.112295
0.112295
0.112295
0.112295
0.112295
0.112295
0.112295
0.112295
0.112295
0.112295
0.112295
0.112295
0.112295
0.112295
0.112295
0.112295
0.112295
0.112295
0.112295
0.112295
0.112295
0.112295
0.112295
0.112295
0.112295
0.112295
0.112295
0.112295
0.112295
0.112295
0.112295
0.112295
0.112295
0.112295
0.112295
0.112295
0.112295
0.112295
0.112295
0.112295
0.112295
0.112295
0.112295
0.112295
0.112295
0.112295
0.112295
0.112295
0.112295
0.112295
0.112295
0.112295
0.112295
0.112295
0.112295
0.112295
0.112295
0.112295
0.112295
0.112295
0.112295
0.112295
0.112295
0.112295
0.112295
0.112295
0.112295
0.112295
0.112295
0.112295
0.112295
0.112295
0.112295
0.112295
0.112295
0.112295
0.112295
0.112295
0.112295
0.112295
0.112295
0.112295
0.112295
0.112295
0.112295
0.112295
0.112295
0.112295
0.112295
0.112295
0.112295
0.112295
0.112295
0.112295
0.112295
0.112295
0.112295
0.112295
0.112295
0.112295
0.112295
0.112295
0.112295
0.112295
0.112295
0.112295
0.112295
0.112295
0.112295
0.112295
0.112295
0.112295
0.112295
0.112295
0.112292
0.112242
0.110836
0.0759958
0.0130252
0.000910619
0.000628175
0.000478071
0.000320075
0.000184391
8.85165e-05
3.35251e-05
9.22839e-06
1.63438e-06
1.56721e-07
6.52482e-09
9.20549e-11
6.73276e-13
3.38507e-13
3.38903e-13
3.39915e-13
3.40248e-13
3.39122e-13
3.35007e-13
3.27229e-13
3.16286e-13
3.03413e-13
2.90132e-13
2.77665e-13
2.66532e-13
2.56605e-13
2.47452e-13
2.38633e-13
2.29846e-13
2.20963e-13
2.11995e-13
2.03033e-13
1.94182e-13
1.85519e-13
0.112295
0.112295
0.112295
0.112295
0.112295
0.112295
0.112295
0.112295
0.112295
0.112295
0.112295
0.112295
0.112295
0.112295
0.112295
0.112295
0.112295
0.112295
0.112295
0.112295
0.112295
0.112295
0.112295
0.112295
0.112295
0.112295
0.112295
0.112295
0.112295
0.112295
0.112295
0.112295
0.112295
0.112295
0.112295
0.112295
0.112295
0.112295
0.112295
0.112295
0.112295
0.112295
0.112295
0.112295
0.112295
0.112295
0.112295
0.112295
0.112295
0.112295
0.112295
0.112295
0.112295
0.112295
0.112295
0.112295
0.112295
0.112295
0.112295
0.112295
0.112295
0.112295
0.112295
0.112295
0.112295
0.112295
0.112295
0.112295
0.112295
0.112295
0.112295
0.112295
0.112295
0.112295
0.112295
0.112295
0.112295
0.112295
0.112295
0.112295
0.112295
0.112295
0.112295
0.112295
0.112295
0.112295
0.112295
0.112295
0.112295
0.112295
0.112295
0.112295
0.112295
0.112295
0.112295
0.112295
0.112295
0.112295
0.112295
0.112295
0.112295
0.112295
0.112295
0.112295
0.112295
0.112295
0.112295
0.112295
0.112295
0.112295
0.112295
0.112295
0.112295
0.112295
0.112295
0.112295
0.112295
0.112295
0.112295
0.112295
0.112295
0.112295
0.112295
0.112295
0.112295
0.112295
0.112295
0.112292
0.112244
0.11092
0.0774977
0.0137712
0.00093605
0.000629912
0.000479885
0.00032178
0.000185578
8.91967e-05
3.38426e-05
9.33971e-06
1.65949e-06
1.59664e-07
6.66454e-09
9.41549e-11
6.81183e-13
3.38538e-13
3.38893e-13
3.39779e-13
3.39992e-13
3.38857e-13
3.34802e-13
3.27086e-13
3.16178e-13
3.03338e-13
2.90089e-13
2.77648e-13
2.66528e-13
2.56605e-13
2.47452e-13
2.38633e-13
2.29847e-13
2.20964e-13
2.11995e-13
2.03033e-13
1.94182e-13
1.85518e-13
0.112295
0.112295
0.112295
0.112295
0.112295
0.112295
0.112295
0.112295
0.112295
0.112295
0.112295
0.112295
0.112295
0.112295
0.112295
0.112295
0.112295
0.112295
0.112295
0.112295
0.112295
0.112295
0.112295
0.112295
0.112295
0.112295
0.112295
0.112295
0.112295
0.112295
0.112295
0.112295
0.112295
0.112295
0.112295
0.112295
0.112295
0.112295
0.112295
0.112295
0.112295
0.112295
0.112295
0.112295
0.112295
0.112295
0.112295
0.112295
0.112295
0.112295
0.112295
0.112295
0.112295
0.112295
0.112295
0.112295
0.112295
0.112295
0.112295
0.112295
0.112295
0.112295
0.112295
0.112295
0.112295
0.112295
0.112295
0.112295
0.112295
0.112295
0.112295
0.112295
0.112295
0.112295
0.112295
0.112295
0.112295
0.112295
0.112295
0.112295
0.112295
0.112295
0.112295
0.112295
0.112295
0.112295
0.112295
0.112295
0.112295
0.112295
0.112295
0.112295
0.112295
0.112295
0.112295
0.112295
0.112295
0.112295
0.112295
0.112295
0.112295
0.112295
0.112295
0.112295
0.112295
0.112295
0.112295
0.112295
0.112295
0.112295
0.112295
0.112295
0.112295
0.112295
0.112295
0.112295
0.112295
0.112295
0.112295
0.112295
0.112295
0.112295
0.112295
0.112295
0.112295
0.112295
0.112295
0.112292
0.112241
0.11083
0.0763105
0.0132434
0.000919759
0.000629194
0.00047911
0.000320982
0.000185015
8.88959e-05
3.37237e-05
9.30579e-06
1.6528e-06
1.5886e-07
6.61855e-09
9.32126e-11
6.75646e-13
3.37793e-13
3.38111e-13
3.38957e-13
3.39223e-13
3.38215e-13
3.34353e-13
3.26776e-13
3.15948e-13
3.03174e-13
2.89991e-13
2.77595e-13
2.66502e-13
2.56594e-13
2.47447e-13
2.3863e-13
2.29844e-13
2.2096e-13
2.11991e-13
2.03028e-13
1.94178e-13
1.85514e-13
0.112295
0.112295
0.112295
0.112295
0.112295
0.112295
0.112295
0.112295
0.112295
0.112295
0.112295
0.112295
0.112295
0.112295
0.112295
0.112295
0.112295
0.112295
0.112295
0.112295
0.112295
0.112295
0.112295
0.112295
0.112295
0.112295
0.112295
0.112295
0.112295
0.112295
0.112295
0.112295
0.112295
0.112295
0.112295
0.112295
0.112295
0.112295
0.112295
0.112295
0.112295
0.112295
0.112295
0.112295
0.112295
0.112295
0.112295
0.112295
0.112295
0.112295
0.112295
0.112295
0.112295
0.112295
0.112295
0.112295
0.112295
0.112295
0.112295
0.112295
0.112295
0.112295
0.112295
0.112295
0.112295
0.112295
0.112295
0.112295
0.112295
0.112295
0.112295
0.112295
0.112295
0.112295
0.112295
0.112295
0.112295
0.112295
0.112295
0.112295
0.112295
0.112295
0.112295
0.112295
0.112295
0.112295
0.112295
0.112295
0.112295
0.112295
0.112295
0.112295
0.112295
0.112295
0.112295
0.112295
0.112295
0.112295
0.112295
0.112295
0.112295
0.112295
0.112295
0.112295
0.112295
0.112295
0.112295
0.112295
0.112295
0.112295
0.112295
0.112295
0.112295
0.112295
0.112295
0.112295
0.112295
0.112295
0.112295
0.112295
0.112295
0.112295
0.112295
0.112295
0.112295
0.112295
0.112295
0.112292
0.112238
0.110716
0.0743555
0.0124509
0.000896208
0.00062721
0.00047711
0.00031916
0.000183756
8.81917e-05
3.3409e-05
9.19857e-06
1.62786e-06
1.55585e-07
6.4305e-09
8.96418e-11
6.57456e-13
3.36489e-13
3.36797e-13
3.37685e-13
3.38081e-13
3.37247e-13
3.33658e-13
3.26293e-13
3.15596e-13
3.02919e-13
2.89823e-13
2.77495e-13
2.66445e-13
2.56564e-13
2.47433e-13
2.38623e-13
2.29839e-13
2.20955e-13
2.11985e-13
2.03022e-13
1.94171e-13
1.85508e-13
0.112295
0.112295
0.112295
0.112295
0.112295
0.112295
0.112295
0.112295
0.112295
0.112295
0.112295
0.112295
0.112295
0.112295
0.112295
0.112295
0.112295
0.112295
0.112295
0.112295
0.112295
0.112295
0.112295
0.112295
0.112295
0.112295
0.112295
0.112295
0.112295
0.112295
0.112295
0.112295
0.112295
0.112295
0.112295
0.112295
0.112295
0.112295
0.112295
0.112295
0.112295
0.112295
0.112295
0.112295
0.112295
0.112295
0.112295
0.112295
0.112295
0.112295
0.112295
0.112295
0.112295
0.112295
0.112295
0.112295
0.112295
0.112295
0.112295
0.112295
0.112295
0.112295
0.112295
0.112295
0.112295
0.112295
0.112295
0.112295
0.112295
0.112295
0.112295
0.112295
0.112295
0.112295
0.112295
0.112295
0.112295
0.112295
0.112295
0.112295
0.112295
0.112295
0.112295
0.112295
0.112295
0.112295
0.112295
0.112295
0.112295
0.112295
0.112295
0.112295
0.112295
0.112295
0.112295
0.112295
0.112295
0.112295
0.112295
0.112295
0.112295
0.112295
0.112295
0.112295
0.112295
0.112295
0.112295
0.112295
0.112295
0.112295
0.112295
0.112295
0.112295
0.112295
0.112295
0.112295
0.112295
0.112295
0.112295
0.112295
0.112295
0.112295
0.112295
0.112295
0.112295
0.112295
0.112295
0.112292
0.112232
0.110524
0.0716639
0.0114437
0.000870262
0.000624484
0.000474455
0.000316802
0.000182088
8.71965e-05
3.29242e-05
9.02077e-06
1.58498e-06
1.49984e-07
6.11882e-09
8.39752e-11
6.30069e-13
3.34877e-13
3.3519e-13
3.36133e-13
3.36663e-13
3.35995e-13
3.32709e-13
3.25612e-13
3.151e-13
3.02559e-13
2.89576e-13
2.77339e-13
2.6635e-13
2.56509e-13
2.47406e-13
2.38612e-13
2.29835e-13
2.20953e-13
2.11983e-13
2.03019e-13
1.94167e-13
1.85503e-13
0.112295
0.112295
0.112295
0.112295
0.112295
0.112295
0.112295
0.112295
0.112295
0.112295
0.112295
0.112295
0.112295
0.112295
0.112295
0.112295
0.112295
0.112295
0.112295
0.112295
0.112295
0.112295
0.112295
0.112295
0.112295
0.112295
0.112295
0.112295
0.112295
0.112295
0.112295
0.112295
0.112295
0.112295
0.112295
0.112295
0.112295
0.112295
0.112295
0.112295
0.112295
0.112295
0.112295
0.112295
0.112295
0.112295
0.112295
0.112295
0.112295
0.112295
0.112295
0.112295
0.112295
0.112295
0.112295
0.112295
0.112295
0.112295
0.112295
0.112295
0.112295
0.112295
0.112295
0.112295
0.112295
0.112295
0.112295
0.112295
0.112295
0.112295
0.112295
0.112295
0.112295
0.112295
0.112295
0.112295
0.112295
0.112295
0.112295
0.112295
0.112295
0.112295
0.112295
0.112295
0.112295
0.112295
0.112295
0.112295
0.112295
0.112295
0.112295
0.112295
0.112295
0.112295
0.112295
0.112295
0.112295
0.112295
0.112295
0.112295
0.112295
0.112295
0.112295
0.112295
0.112295
0.112295
0.112295
0.112295
0.112295
0.112295
0.112295
0.112295
0.112295
0.112295
0.112295
0.112295
0.112295
0.112295
0.112295
0.112295
0.112295
0.112295
0.112295
0.112295
0.112295
0.112295
0.112295
0.112291
0.112225
0.110278
0.0684844
0.0103468
0.000844084
0.00062102
0.00047105
0.000313785
0.000179905
8.58573e-05
3.22604e-05
8.77806e-06
1.52773e-06
1.42763e-07
5.73329e-09
7.72533e-11
5.98715e-13
3.32998e-13
3.33323e-13
3.34328e-13
3.34994e-13
3.34476e-13
3.31501e-13
3.24709e-13
3.14425e-13
3.02065e-13
2.89232e-13
2.77113e-13
2.66208e-13
2.56422e-13
2.47358e-13
2.3859e-13
2.29828e-13
2.20952e-13
2.11983e-13
2.03019e-13
1.94166e-13
1.85502e-13
0.112295
0.112295
0.112295
0.112295
0.112295
0.112295
0.112295
0.112295
0.112295
0.112295
0.112295
0.112295
0.112295
0.112295
0.112295
0.112295
0.112295
0.112295
0.112295
0.112295
0.112295
0.112295
0.112295
0.112295
0.112295
0.112295
0.112295
0.112295
0.112295
0.112295
0.112295
0.112295
0.112295
0.112295
0.112295
0.112295
0.112295
0.112295
0.112295
0.112295
0.112295
0.112295
0.112295
0.112295
0.112295
0.112295
0.112295
0.112295
0.112295
0.112295
0.112295
0.112295
0.112295
0.112295
0.112295
0.112295
0.112295
0.112295
0.112295
0.112295
0.112295
0.112295
0.112295
0.112295
0.112295
0.112295
0.112295
0.112295
0.112295
0.112295
0.112295
0.112295
0.112295
0.112295
0.112295
0.112295
0.112295
0.112295
0.112295
0.112295
0.112295
0.112295
0.112295
0.112295
0.112295
0.112295
0.112295
0.112295
0.112295
0.112295
0.112295
0.112295
0.112295
0.112295
0.112295
0.112295
0.112295
0.112295
0.112295
0.112295
0.112295
0.112295
0.112295
0.112295
0.112295
0.112295
0.112295
0.112295
0.112295
0.112295
0.112295
0.112295
0.112295
0.112295
0.112295
0.112295
0.112295
0.112295
0.112295
0.112295
0.112295
0.112295
0.112295
0.112295
0.112295
0.112295
0.112295
0.112291
0.112213
0.109928
0.0646723
0.0091303
0.000817966
0.000616873
0.000466895
0.000310101
0.00017722
8.42072e-05
3.14494e-05
8.48668e-06
1.4606e-06
1.34525e-07
5.30671e-09
7.00458e-11
5.65915e-13
3.30854e-13
3.31198e-13
3.32276e-13
3.33086e-13
3.32705e-13
3.30033e-13
3.23567e-13
3.13542e-13
3.01398e-13
2.88759e-13
2.76796e-13
2.66001e-13
2.5629e-13
2.47278e-13
2.38548e-13
2.29811e-13
2.20948e-13
2.11985e-13
2.03021e-13
1.94168e-13
1.85503e-13
0.112295
0.112295
0.112295
0.112295
0.112295
0.112295
0.112295
0.112295
0.112295
0.112295
0.112295
0.112295
0.112295
0.112295
0.112295
0.112295
0.112295
0.112295
0.112295
0.112295
0.112295
0.112295
0.112295
0.112295
0.112295
0.112295
0.112295
0.112295
0.112295
0.112295
0.112295
0.112295
0.112295
0.112295
0.112295
0.112295
0.112295
0.112295
0.112295
0.112295
0.112295
0.112295
0.112295
0.112295
0.112295
0.112295
0.112295
0.112295
0.112295
0.112295
0.112295
0.112295
0.112295
0.112295
0.112295
0.112295
0.112295
0.112295
0.112295
0.112295
0.112295
0.112295
0.112295
0.112295
0.112295
0.112295
0.112295
0.112295
0.112295
0.112295
0.112295
0.112295
0.112295
0.112295
0.112295
0.112295
0.112295
0.112295
0.112295
0.112295
0.112295
0.112295
0.112295
0.112295
0.112295
0.112295
0.112295
0.112295
0.112295
0.112295
0.112295
0.112295
0.112295
0.112295
0.112295
0.112295
0.112295
0.112295
0.112295
0.112295
0.112295
0.112295
0.112295
0.112295
0.112295
0.112295
0.112295
0.112295
0.112295
0.112295
0.112295
0.112295
0.112295
0.112295
0.112295
0.112295
0.112295
0.112295
0.112295
0.112295
0.112295
0.112295
0.112295
0.112295
0.112295
0.112295
0.112295
0.11229
0.112198
0.109454
0.060305
0.00784882
0.000793977
0.000612027
0.000461948
0.00030573
0.000174043
8.22718e-05
3.05126e-05
8.15636e-06
1.38611e-06
1.25593e-07
4.85547e-09
6.26169e-11
5.3279e-13
3.28466e-13
3.28834e-13
3.29995e-13
3.30952e-13
3.30695e-13
3.2831e-13
3.22176e-13
3.12429e-13
3.00525e-13
2.88114e-13
2.76352e-13
2.65707e-13
2.56096e-13
2.47152e-13
2.38473e-13
2.29773e-13
2.20934e-13
2.11983e-13
2.03024e-13
1.94172e-13
1.85506e-13
0.112295
0.112295
0.112295
0.112295
0.112295
0.112295
0.112295
0.112295
0.112295
0.112295
0.112295
0.112295
0.112295
0.112295
0.112295
0.112295
0.112295
0.112295
0.112295
0.112295
0.112295
0.112295
0.112295
0.112295
0.112295
0.112295
0.112295
0.112295
0.112295
0.112295
0.112295
0.112295
0.112295
0.112295
0.112295
0.112295
0.112295
0.112295
0.112295
0.112295
0.112295
0.112295
0.112295
0.112295
0.112295
0.112295
0.112295
0.112295
0.112295
0.112295
0.112295
0.112295
0.112295
0.112295
0.112295
0.112295
0.112295
0.112295
0.112295
0.112295
0.112295
0.112295
0.112295
0.112295
0.112295
0.112295
0.112295
0.112295
0.112295
0.112295
0.112295
0.112295
0.112295
0.112295
0.112295
0.112295
0.112295
0.112295
0.112295
0.112295
0.112295
0.112295
0.112295
0.112295
0.112295
0.112295
0.112295
0.112295
0.112295
0.112295
0.112295
0.112295
0.112295
0.112295
0.112295
0.112295
0.112295
0.112295
0.112295
0.112295
0.112295
0.112295
0.112295
0.112295
0.112295
0.112295
0.112295
0.112295
0.112295
0.112295
0.112295
0.112295
0.112295
0.112295
0.112295
0.112295
0.112295
0.112295
0.112295
0.112295
0.112295
0.112295
0.112295
0.112295
0.112295
0.112295
0.112295
0.112289
0.112177
0.108775
0.0553691
0.00658198
0.000773201
0.000606508
0.000456226
0.000300722
0.000170425
8.00904e-05
2.94714e-05
7.795e-06
1.30605e-06
1.16187e-07
4.39122e-09
5.5174e-11
5.00304e-13
3.25859e-13
3.26256e-13
3.27503e-13
3.28605e-13
3.28456e-13
3.26337e-13
3.20532e-13
3.11073e-13
2.99423e-13
2.87264e-13
2.7574e-13
2.65291e-13
2.55818e-13
2.46965e-13
2.38352e-13
2.29702e-13
2.209e-13
2.11971e-13
2.03023e-13
1.94175e-13
1.8551e-13
0.112295
0.112295
0.112295
0.112295
0.112295
0.112295
0.112295
0.112295
0.112295
0.112295
0.112295
0.112295
0.112295
0.112295
0.112295
0.112295
0.112295
0.112295
0.112295
0.112295
0.112295
0.112295
0.112295
0.112295
0.112295
0.112295
0.112295
0.112295
0.112295
0.112295
0.112295
0.112295
0.112295
0.112295
0.112295
0.112295
0.112295
0.112295
0.112295
0.112295
0.112295
0.112295
0.112295
0.112295
0.112295
0.112295
0.112295
0.112295
0.112295
0.112295
0.112295
0.112295
0.112295
0.112295
0.112295
0.112295
0.112295
0.112295
0.112295
0.112295
0.112295
0.112295
0.112295
0.112295
0.112295
0.112295
0.112295
0.112295
0.112295
0.112295
0.112295
0.112295
0.112295
0.112295
0.112295
0.112295
0.112295
0.112295
0.112295
0.112295
0.112295
0.112295
0.112295
0.112295
0.112295
0.112295
0.112295
0.112295
0.112295
0.112295
0.112295
0.112295
0.112295
0.112295
0.112295
0.112295
0.112295
0.112295
0.112295
0.112295
0.112295
0.112295
0.112295
0.112295
0.112295
0.112295
0.112295
0.112295
0.112295
0.112295
0.112295
0.112295
0.112295
0.112295
0.112295
0.112295
0.112295
0.112295
0.112295
0.112295
0.112295
0.112295
0.112295
0.112295
0.112295
0.112295
0.112295
0.112287
0.112148
0.107835
0.050077
0.00538057
0.000755769
0.000600362
0.000449781
0.000295146
0.000166425
7.77008e-05
2.83435e-05
7.40892e-06
1.22198e-06
1.06519e-07
3.92598e-09
4.79339e-11
4.69408e-13
3.23058e-13
3.23483e-13
3.24816e-13
3.26054e-13
3.25998e-13
3.24122e-13
3.18636e-13
3.0947e-13
2.98081e-13
2.86186e-13
2.74926e-13
2.64713e-13
2.55424e-13
2.46699e-13
2.38172e-13
2.29586e-13
2.20833e-13
2.11939e-13
2.03012e-13
1.94174e-13
1.85513e-13
0.112295
0.112295
0.112295
0.112295
0.112295
0.112295
0.112295
0.112295
0.112295
0.112295
0.112295
0.112295
0.112295
0.112295
0.112295
0.112295
0.112295
0.112295
0.112295
0.112295
0.112295
0.112295
0.112295
0.112295
0.112295
0.112295
0.112295
0.112295
0.112295
0.112295
0.112295
0.112295
0.112295
0.112295
0.112295
0.112295
0.112295
0.112295
0.112295
0.112295
0.112295
0.112295
0.112295
0.112295
0.112295
0.112295
0.112295
0.112295
0.112295
0.112295
0.112295
0.112295
0.112295
0.112295
0.112295
0.112295
0.112295
0.112295
0.112295
0.112295
0.112295
0.112295
0.112295
0.112295
0.112295
0.112295
0.112295
0.112295
0.112295
0.112295
0.112295
0.112295
0.112295
0.112295
0.112295
0.112295
0.112295
0.112295
0.112295
0.112295
0.112295
0.112295
0.112295
0.112295
0.112295
0.112295
0.112295
0.112295
0.112295
0.112295
0.112295
0.112295
0.112295
0.112295
0.112295
0.112295
0.112295
0.112295
0.112295
0.112295
0.112295
0.112295
0.112295
0.112295
0.112295
0.112295
0.112295
0.112295
0.112295
0.112295
0.112295
0.112295
0.112295
0.112295
0.112295
0.112295
0.112295
0.112295
0.112295
0.112295
0.112295
0.112295
0.112295
0.112295
0.112295
0.112295
0.112295
0.112286
0.112105
0.106543
0.0445565
0.00425126
0.000741173
0.000593652
0.000442685
0.00028907
0.000162095
7.51346e-05
2.71444e-05
7.00389e-06
1.13539e-06
9.67913e-08
3.47127e-09
4.10901e-11
4.40847e-13
3.20082e-13
3.20536e-13
3.21948e-13
3.23309e-13
3.23336e-13
3.21675e-13
3.16493e-13
3.07619e-13
2.96496e-13
2.84872e-13
2.7389e-13
2.63939e-13
2.54874e-13
2.46323e-13
2.37916e-13
2.29412e-13
2.20722e-13
2.11876e-13
2.02982e-13
1.94164e-13
1.85513e-13
0.112295
0.112295
0.112295
0.112295
0.112295
0.112295
0.112295
0.112295
0.112295
0.112295
0.112295
0.112295
0.112295
0.112295
0.112295
0.112295
0.112295
0.112295
0.112295
0.112295
0.112295
0.112295
0.112295
0.112295
0.112295
0.112295
0.112295
0.112295
0.112295
0.112295
0.112295
0.112295
0.112295
0.112295
0.112295
0.112295
0.112295
0.112295
0.112295
0.112295
0.112295
0.112295
0.112295
0.112295
0.112295
0.112295
0.112295
0.112295
0.112295
0.112295
0.112295
0.112295
0.112295
0.112295
0.112295
0.112295
0.112295
0.112295
0.112295
0.112295
0.112295
0.112295
0.112295
0.112295
0.112295
0.112295
0.112295
0.112295
0.112295
0.112295
0.112295
0.112295
0.112295
0.112295
0.112295
0.112295
0.112295
0.112295
0.112295
0.112295
0.112295
0.112295
0.112295
0.112295
0.112295
0.112295
0.112295
0.112295
0.112295
0.112295
0.112295
0.112295
0.112295
0.112295
0.112295
0.112295
0.112295
0.112295
0.112295
0.112295
0.112295
0.112295
0.112295
0.112295
0.112295
0.112295
0.112295
0.112295
0.112295
0.112295
0.112295
0.112295
0.112295
0.112295
0.112295
0.112295
0.112295
0.112295
0.112295
0.112295
0.112295
0.112295
0.112295
0.112295
0.112295
0.112295
0.112294
0.112283
0.112045
0.10467
0.0389142
0.00325516
0.000728772
0.00058642
0.000435
0.000282548
0.000157476
7.2417e-05
2.58877e-05
6.58557e-06
1.04772e-06
8.71955e-08
3.03654e-09
3.47777e-11
4.15033e-13
3.16947e-13
3.17428e-13
3.18912e-13
3.20381e-13
3.20484e-13
3.19002e-13
3.14107e-13
3.05523e-13
2.94668e-13
2.83317e-13
2.72621e-13
2.62949e-13
2.54136e-13
2.45796e-13
2.37554e-13
2.29166e-13
2.20556e-13
2.1177e-13
2.02922e-13
1.94135e-13
1.85503e-13
0.112295
0.112295
0.112295
0.112295
0.112295
0.112295
0.112295
0.112295
0.112295
0.112295
0.112295
0.112295
0.112295
0.112295
0.112295
0.112295
0.112295
0.112295
0.112295
0.112295
0.112295
0.112295
0.112295
0.112295
0.112295
0.112295
0.112295
0.112295
0.112295
0.112295
0.112295
0.112295
0.112295
0.112295
0.112295
0.112295
0.112295
0.112295
0.112295
0.112295
0.112295
0.112295
0.112295
0.112295
0.112295
0.112295
0.112295
0.112295
0.112295
0.112295
0.112295
0.112295
0.112295
0.112295
0.112295
0.112295
0.112295
0.112295
0.112295
0.112295
0.112295
0.112295
0.112295
0.112295
0.112295
0.112295
0.112295
0.112295
0.112295
0.112295
0.112295
0.112295
0.112295
0.112295
0.112295
0.112295
0.112295
0.112295
0.112295
0.112295
0.112295
0.112295
0.112295
0.112295
0.112295
0.112295
0.112295
0.112295
0.112295
0.112295
0.112295
0.112295
0.112295
0.112295
0.112295
0.112295
0.112295
0.112295
0.112295
0.112295
0.112295
0.112295
0.112295
0.112295
0.112295
0.112295
0.112295
0.112295
0.112295
0.112295
0.112295
0.112295
0.112295
0.112295
0.112295
0.112295
0.112295
0.112295
0.112295
0.112295
0.112295
0.112295
0.112295
0.112295
0.112295
0.112295
0.112294
0.112279
0.111955
0.102038
0.0333588
0.00244841
0.000717784
0.000578673
0.000426756
0.00027562
0.000152601
6.95717e-05
2.45867e-05
6.15944e-06
9.60358e-07
7.78959e-08
2.6289e-09
2.90756e-11
3.92094e-13
3.13669e-13
3.14174e-13
3.15722e-13
3.17281e-13
3.17455e-13
3.16119e-13
3.1149e-13
3.03188e-13
2.92599e-13
2.81522e-13
2.71116e-13
2.61731e-13
2.53186e-13
2.45086e-13
2.37047e-13
2.28817e-13
2.20318e-13
2.11611e-13
2.02822e-13
1.94078e-13
1.85476e-13
0.112295
0.112295
0.112295
0.112295
0.112295
0.112295
0.112295
0.112295
0.112295
0.112295
0.112295
0.112295
0.112295
0.112295
0.112295
0.112295
0.112295
0.112295
0.112295
0.112295
0.112295
0.112295
0.112295
0.112295
0.112295
0.112295
0.112295
0.112295
0.112295
0.112295
0.112295
0.112295
0.112295
0.112295
0.112295
0.112295
0.112295
0.112295
0.112295
0.112295
0.112295
0.112295
0.112295
0.112295
0.112295
0.112295
0.112295
0.112295
0.112295
0.112295
0.112295
0.112295
0.112295
0.112295
0.112295
0.112295
0.112295
0.112295
0.112295
0.112295
0.112295
0.112295
0.112295
0.112295
0.112295
0.112295
0.112295
0.112295
0.112295
0.112295
0.112295
0.112295
0.112295
0.112295
0.112295
0.112295
0.112295
0.112295
0.112295
0.112295
0.112295
0.112295
0.112295
0.112295
0.112295
0.112295
0.112295
0.112295
0.112295
0.112295
0.112295
0.112295
0.112295
0.112295
0.112295
0.112295
0.112295
0.112295
0.112295
0.112295
0.112295
0.112295
0.112295
0.112295
0.112295
0.112295
0.112295
0.112295
0.112295
0.112295
0.112295
0.112295
0.112295
0.112295
0.112295
0.112295
0.112295
0.112295
0.112295
0.112295
0.112295
0.112295
0.112295
0.112295
0.112295
0.112295
0.112294
0.112274
0.111817
0.0982032
0.0278987
0.00183073
0.000707573
0.000570412
0.000417999
0.000268329
0.000147503
6.6622e-05
2.32548e-05
5.73084e-06
8.74518e-07
6.90204e-08
2.25297e-09
2.40166e-11
3.71972e-13
3.1026e-13
3.10788e-13
3.12391e-13
3.14025e-13
3.14257e-13
3.1304e-13
3.08651e-13
3.00621e-13
2.90295e-13
2.7949e-13
2.69374e-13
2.60282e-13
2.52015e-13
2.4417e-13
2.36361e-13
2.28329e-13
2.19983e-13
2.11383e-13
2.02669e-13
1.93983e-13
1.85421e-13
0.112295
0.112295
0.112295
0.112295
0.112295
0.112295
0.112295
0.112295
0.112295
0.112295
0.112295
0.112295
0.112295
0.112295
0.112295
0.112295
0.112295
0.112295
0.112295
0.112295
0.112295
0.112295
0.112295
0.112295
0.112295
0.112295
0.112295
0.112295
0.112295
0.112295
0.112295
0.112295
0.112295
0.112295
0.112295
0.112295
0.112295
0.112295
0.112295
0.112295
0.112295
0.112295
0.112295
0.112295
0.112295
0.112295
0.112295
0.112295
0.112295
0.112295
0.112295
0.112295
0.112295
0.112295
0.112295
0.112295
0.112295
0.112295
0.112295
0.112295
0.112295
0.112295
0.112295
0.112295
0.112295
0.112295
0.112295
0.112295
0.112295
0.112295
0.112295
0.112295
0.112295
0.112295
0.112295
0.112295
0.112295
0.112295
0.112295
0.112295
0.112295
0.112295
0.112295
0.112295
0.112295
0.112295
0.112295
0.112295
0.112295
0.112295
0.112295
0.112295
0.112295
0.112295
0.112295
0.112295
0.112295
0.112295
0.112295
0.112295
0.112295
0.112295
0.112295
0.112295
0.112295
0.112295
0.112295
0.112295
0.112295
0.112295
0.112295
0.112295
0.112295
0.112295
0.112295
0.112295
0.112295
0.112295
0.112295
0.112295
0.112295
0.112295
0.112295
0.112295
0.112295
0.112295
0.112293
0.112265
0.111605
0.0927871
0.0226143
0.00139704
0.000697667
0.000561635
0.000408764
0.000260719
0.00014222
6.35953e-05
2.19065e-05
5.3049e-06
7.91242e-07
6.06628e-08
1.91124e-09
1.95989e-11
3.54493e-13
3.06731e-13
3.07281e-13
3.08931e-13
3.10623e-13
3.10903e-13
3.09782e-13
3.05604e-13
2.97831e-13
2.87764e-13
2.77228e-13
2.674e-13
2.586e-13
2.50615e-13
2.43036e-13
2.35473e-13
2.27665e-13
2.19512e-13
2.11061e-13
2.02451e-13
1.93837e-13
1.85329e-13
0.112295
0.112295
0.112295
0.112295
0.112295
0.112295
0.112295
0.112295
0.112295
0.112295
0.112295
0.112295
0.112295
0.112295
0.112295
0.112295
0.112295
0.112295
0.112295
0.112295
0.112295
0.112295
0.112295
0.112295
0.112295
0.112295
0.112295
0.112295
0.112295
0.112295
0.112295
0.112295
0.112295
0.112295
0.112295
0.112295
0.112295
0.112295
0.112295
0.112295
0.112295
0.112295
0.112295
0.112295
0.112295
0.112295
0.112295
0.112295
0.112295
0.112295
0.112295
0.112295
0.112295
0.112295
0.112295
0.112295
0.112295
0.112295
0.112295
0.112295
0.112295
0.112295
0.112295
0.112295
0.112295
0.112295
0.112295
0.112295
0.112295
0.112295
0.112295
0.112295
0.112295
0.112295
0.112295
0.112295
0.112295
0.112295
0.112295
0.112295
0.112295
0.112295
0.112295
0.112295
0.112295
0.112295
0.112295
0.112295
0.112295
0.112295
0.112295
0.112295
0.112295
0.112295
0.112295
0.112295
0.112295
0.112295
0.112295
0.112295
0.112295
0.112295
0.112295
0.112295
0.112295
0.112295
0.112295
0.112295
0.112295
0.112295
0.112295
0.112295
0.112295
0.112295
0.112295
0.112295
0.112295
0.112295
0.112295
0.112295
0.112295
0.112295
0.112295
0.112295
0.112295
0.112295
0.112292
0.112253
0.111264
0.0853112
0.0176332
0.00111433
0.000687811
0.000552304
0.0003991
0.000252833
0.000136789
6.05178e-05
2.05555e-05
4.88628e-06
7.11393e-07
5.289e-08
1.60478e-09
1.57996e-11
3.39421e-13
3.03095e-13
3.03664e-13
3.05356e-13
3.07089e-13
3.07403e-13
3.06357e-13
3.02364e-13
2.94829e-13
2.85014e-13
2.74744e-13
2.65199e-13
2.5669e-13
2.48987e-13
2.41677e-13
2.3437e-13
2.26803e-13
2.18869e-13
2.10606e-13
2.02141e-13
1.93627e-13
1.8519e-13
0.112295
0.112295
0.112295
0.112295
0.112295
0.112295
0.112295
0.112295
0.112295
0.112295
0.112295
0.112295
0.112295
0.112295
0.112295
0.112295
0.112295
0.112295
0.112295
0.112295
0.112295
0.112295
0.112295
0.112295
0.112295
0.112295
0.112295
0.112295
0.112295
0.112295
0.112295
0.112295
0.112295
0.112295
0.112295
0.112295
0.112295
0.112295
0.112295
0.112295
0.112295
0.112295
0.112295
0.112295
0.112295
0.112295
0.112295
0.112295
0.112295
0.112295
0.112295
0.112295
0.112295
0.112295
0.112295
0.112295
0.112295
0.112295
0.112295
0.112295
0.112295
0.112295
0.112295
0.112295
0.112295
0.112295
0.112295
0.112295
0.112295
0.112295
0.112295
0.112295
0.112295
0.112295
0.112295
0.112295
0.112295
0.112295
0.112295
0.112295
0.112295
0.112295
0.112295
0.112295
0.112295
0.112295
0.112295
0.112295
0.112295
0.112295
0.112295
0.112295
0.112295
0.112295
0.112295
0.112295
0.112295
0.112295
0.112295
0.112295
0.112295
0.112295
0.112295
0.112295
0.112295
0.112295
0.112295
0.112295
0.112295
0.112295
0.112295
0.112295
0.112295
0.112295
0.112295
0.112295
0.112295
0.112295
0.112295
0.112295
0.112295
0.112295
0.112295
0.112295
0.112295
0.112295
0.112291
0.112233
0.11072
0.0758336
0.0131378
0.000945476
0.000677874
0.000542373
0.000389051
0.000244721
0.000131247
5.74111e-05
1.92123e-05
4.47835e-06
6.35555e-07
4.57386e-08
1.33341e-09
1.25816e-11
3.26486e-13
2.99361e-13
2.99951e-13
3.01677e-13
3.03436e-13
3.03769e-13
3.02781e-13
2.98944e-13
2.91629e-13
2.82056e-13
2.72046e-13
2.62779e-13
2.54556e-13
2.47133e-13
2.40092e-13
2.33044e-13
2.25727e-13
2.18032e-13
2.09985e-13
2.01704e-13
1.9333e-13
1.84989e-13
0.112295
0.112295
0.112295
0.112295
0.112295
0.112295
0.112295
0.112295
0.112295
0.112295
0.112295
0.112295
0.112295
0.112295
0.112295
0.112295
0.112295
0.112295
0.112295
0.112295
0.112295
0.112295
0.112295
0.112295
0.112295
0.112295
0.112295
0.112295
0.112295
0.112295
0.112295
0.112295
0.112295
0.112295
0.112295
0.112295
0.112295
0.112295
0.112295
0.112295
0.112295
0.112295
0.112295
0.112295
0.112295
0.112295
0.112295
0.112295
0.112295
0.112295
0.112295
0.112295
0.112295
0.112295
0.112295
0.112295
0.112295
0.112295
0.112295
0.112295
0.112295
0.112295
0.112295
0.112295
0.112295
0.112295
0.112295
0.112295
0.112295
0.112295
0.112295
0.112295
0.112295
0.112295
0.112295
0.112295
0.112295
0.112295
0.112295
0.112295
0.112295
0.112295
0.112295
0.112295
0.112295
0.112295
0.112295
0.112295
0.112295
0.112295
0.112295
0.112295
0.112295
0.112295
0.112295
0.112295
0.112295
0.112295
0.112295
0.112295
0.112295
0.112295
0.112295
0.112295
0.112295
0.112295
0.112295
0.112295
0.112295
0.112295
0.112295
0.112295
0.112295
0.112295
0.112295
0.112295
0.112295
0.112295
0.112295
0.112295
0.112295
0.112295
0.112295
0.112295
0.112295
0.112295
0.11229
0.112203
0.109813
0.0648822
0.00925803
0.000851559
0.00066786
0.000531805
0.000378676
0.000236431
0.000125632
5.42999e-05
1.78877e-05
4.08418e-06
5.64173e-07
3.92257e-08
1.09603e-09
9.89652e-12
3.15404e-13
2.9554e-13
2.9615e-13
2.97905e-13
2.99673e-13
3.00013e-13
2.99067e-13
2.95359e-13
2.88243e-13
2.78902e-13
2.69145e-13
2.60151e-13
2.52207e-13
2.45059e-13
2.38283e-13
2.31494e-13
2.24431e-13
2.16983e-13
2.09172e-13
2.01104e-13
1.92909e-13
1.84703e-13
0.112295
0.112295
0.112295
0.112295
0.112295
0.112295
0.112295
0.112295
0.112295
0.112295
0.112295
0.112295
0.112295
0.112295
0.112295
0.112295
0.112295
0.112295
0.112295
0.112295
0.112295
0.112295
0.112295
0.112295
0.112295
0.112295
0.112295
0.112295
0.112295
0.112295
0.112295
0.112295
0.112295
0.112295
0.112295
0.112295
0.112295
0.112295
0.112295
0.112295
0.112295
0.112295
0.112295
0.112295
0.112295
0.112295
0.112295
0.112295
0.112295
0.112295
0.112295
0.112295
0.112295
0.112295
0.112295
0.112295
0.112295
0.112295
0.112295
0.112295
0.112295
0.112295
0.112295
0.112295
0.112295
0.112295
0.112295
0.112295
0.112295
0.112295