/*--------------------------------*- C++ -*----------------------------------*\
  =========                 |
  \\      /  F ield         | OpenFOAM: The Open Source CFD Toolbox
   \\    /   O peration     | Website:  https://openfoam.org
    \\  /    A nd           | Version:  13
     \\/     M anipulation  |
\*---------------------------------------------------------------------------*/
FoamFile
{
    format      ascii;
    class       volScalarField;
    location    "0.0019";
    object      p;
}
// * * * * * * * * * * * * * * * * * * * * * * * * * * * * * * * * * * * * * //

dimensions      [1 -1 -2 0 0 0 0];

internalField   nonuniform List<scalar> 
33334
(
262324
262272
262148
261921
261685
261378
261017
260596
260135
259652
259162
258685
258245
257875
257604
257446
257460
257685
258111
258763
259639
260734
262032
263515
265159
266947
268863
270891
273016
275229
277510
279857
282258
284716
287229
289797
292421
295101
297837
300625
303461
306341
309259
312207
315181
318173
321179
324189
327198
330195
333170
336109
338998
341820
344557
347189
349693
352047
354232
356230
357996
359451
360626
361716
362691
363560
364342
365058
365726
366355
366960
367552
368151
368774
369440
370167
370934
371856
372971
374033
375594
376945
378158
380004
382476
385230
388471
392157
396296
400868
405924
411449
417443
423884
430794
438159
445982
454262
462972
472150
481776
491823
502353
513284
524737
536619
548980
561847
575222
589076
603464
618457
634082
650393
667482
685349
704095
723842
744737
766944
790731
816357
844197
874816
909292
949178
996251
1.05454e+06
1.1312e+06
1.22916e+06
1.06261e+06
529560
228616
196025
196177
197615
199018
200348
201741
203116
204377
205784
207386
208928
210715
212394
213991
215611
217168
218290
218810
219014
219083
219078
218979
218782
218518
218233
217942
217650
217364
217084
216812
216547
216287
216032
262272
262355
262150
261876
261612
261297
260934
260528
260087
259618
259137
258663
258225
257852
257577
257411
257415
257629
258042
258677
259536
260611
261890
263353
264978
266746
268643
270654
272764
274965
277232
279568
281957
284404
286908
289467
292082
294756
297485
300266
303097
305972
308884
311828
314798
317788
320791
323802
326811
329810
332788
335732
338627
341457
344203
346844
349358
351724
353925
355939
357724
359201
360392
361490
362476
363355
364145
364866
365534
366168
366777
367371
367966
368586
369249
369948
370658
371529
372600
373704
374854
376738
378457
380404
382914
385623
388792
392357
396337
400776
405665
411028
416899
423274
430121
437441
445244
453480
462178
471329
480906
490974
501440
512430
523796
535678
548092
560916
574201
588073
602556
617622
633294
649560
666535
684354
703006
722795
743757
766036
790111
816295
845116
877151
912711
953270
1.00069e+06
1.05882e+06
1.1325e+06
1.22385e+06
1.07075e+06
543822
232969
196032
196071
197477
198892
200259
201728
203232
204685
206257
208017
209634
211498
213257
214874
216302
217326
218011
218527
218820
218924
218936
218866
218713
218495
218227
217940
217650
217365
217086
216813
216548
216288
216032
262148
262150
262018
261811
261532
261204
260828
260410
259959
259491
259021
258565
258146
257792
257531
257378
257392
257612
258029
258669
259533
260613
261895
263359
264985
266752
268649
270661
272772
274972
277240
279577
281967
284415
286919
289477
292093
294768
297498
300281
303112
305987
308899
311842
314810
317798
320800
323809
326817
329814
332790
335731
338622
341448
344190
346826
349338
351703
353899
355909
357695
359175
360368
361455
362430
363304
364093
364816
365492
366137
366757
367363
367964
368586
369243
369944
370727
371608
372784
374121
375469
377013
379138
381193
383287
385777
388820
392303
396257
400712
405657
411084
416996
423398
430272
437617
445431
453688
462400
471555
481151
491211
501697
512661
524051
535946
548335
561169
574485
588348
602789
617811
633445
649727
666746
684586
703291
723055
743972
766225
790159
816078
844413
875831
911209
952168
1.00051e+06
1.05938e+06
1.1334e+06
1.22336e+06
1.0587e+06
533090
230316
195980
196117
197554
198978
200341
201770
203204
204529
205959
207518
209057
210907
212631
214180
215554
216648
217464
218086
218505
218697
218743
218711
218599
218421
218192
217929
217649
217366
217088
216816
216549
216288
216032
261921
261876
261811
261603
261351
261039
260676
260272
259835
259378
258919
258476
258070
257728
257477
257337
257361
257589
258013
258660
259530
260616
261902
263369
264998
266769
268669
270686
272802
275008
277283
279623
282016
284465
286968
289525
292139
294810
297538
300318
303149
306022
308934
311877
314846
317835
320839
323851
326863
329865
332845
335792
338689
341522
344270
346915
349433
351801
353999
356011
357799
359284
360483
361557
362521
363386
364166
364882
365557
366204
366836
367459
368082
368727
369404
370124
370900
371810
372908
374087
375428
377017
379024
381037
383213
385824
388918
392460
396451
400915
405872
411322
417253
423663
430546
437904
445729
454004
462735
471902
481515
491583
502087
513052
524454
536355
548730
561578
574914
588780
603216
618236
633873
650182
667231
685086
703834
723614
744565
766896
790866
816820
845169
876562
912005
952936
1.00134e+06
1.06015e+06
1.13496e+06
1.22631e+06
1.04893e+06
521988
227322
195731
195928
197365
198783
200137
201557
202986
204304
205728
207249
208790
210639
212307
213718
214915
215912
216747
217442
217987
218326
218466
218491
218435
218307
218123
217896
217639
217367
217091
216819
216552
216290
216033
261685
261612
261532
261351
261098
260788
260429
260035
259614
259178
258742
258324
257941
257622
257389
257268
257307
257545
257979
258634
259509
260599
261887
263357
264987
266760
268662
270682
272803
275014
277294
279637
282032
284481
286982
289538
292150
294818
297542
300320
303147
306018
308926
311867
314834
317823
320828
323841
326856
329862
332846
335797
338699
341536
344290
346939
349460
351828
354029
356048
357840
359331
360540
361609
362567
363425
364199
364911
365585
366239
366885
367528
368172
368834
369522
370261
371041
371958
373025
374198
375554
377122
378951
380962
383245
385937
389050
392597
396593
401067
406038
411505
417458
423884
430779
438145
445971
454252
462986
472153
481773
491839
502348
513305
524713
536605
548954
561801
575148
589005
603426
618446
634089
650414
667489
685368
704164
723969
744952
767349
791320
817280
845721
877255
913001
954087
1.00272e+06
1.06161e+06
1.13723e+06
1.22823e+06
1.03127e+06
506706
224074
195527
195783
197223
198621
199960
201361
202753
204032
205393
206854
208368
210157
211731
213027
214122
215070
215907
216648
217289
217781
218077
218201
218214
218145
218014
217831
217609
217358
217092
216823
216556
216293
216035
261378
261297
261204
261039
260788
260487
260142
259766
259366
258954
258544
258153
257798
257506
257295
257197
257257
257509
257957
258620
259502
260597
261888
263358
264988
266761
268664
270686
272808
275021
277302
279645
282041
284488
286987
289540
292148
294813
297534
300308
303133
306002
308909
311849
314816
317806
320812
323828
326846
329855
332843
335797
338702
341541
344297
346948
349470
351840
354047
356073
357871
359372
360590
361657
362610
363463
364232
364942
365618
366281
366942
367607
368275
368954
369652
370399
371189
372092
373158
374350
375693
377209
378978
381016
383351
386075
389195
392752
396764
401252
406233
411705
417658
424088
430987
438357
446184
454470
463210
472379
482007
492078
502598
513562
524980
536867
549207
562056
575411
589276
603708
618750
634417
650762
667859
685763
704603
724443
745468
767935
791959
817980
846553
878260
914156
955268
1.00401e+06
1.06341e+06
1.14e+06
1.23106e+06
1.00898e+06
489533
220353
195235
195551
196984
198351
199666
201044
202403
203643
204956
206388
207845
209519
210975
212172
213203
214125
214965
215742
216453
217067
217532
217815
217930
217932
217857
217726
217547
217329
217084
216824
216559
216296
216037
261017
260934
260828
260676
260429
260142
259815
259460
259084
258700
258319
257958
257634
257371
257185
257113
257197
257465
257928
258603
259493
260593
261886
263357
264987
266761
268665
270689
272814
275029
277313
279656
282053
284499
286997
289549
292155
294817
297534
300306
303128
305995
308901
311839
314805
317793
320799
323816
326836
329848
332839
335796
338703
341545
344304
346958
349483
351857
354069
356103
357909
359419
360647
361716
362668
363517
364282
364988
365663
366332
367008
367697
368392
369094
369810
370564
371359
372261
373320
374520
375850
377369
379133
381187
383547
386281
389409
392974
397001
401503
406491
411965
417918
424350
431251
438625
446454
454747
463494
472673
482310
492391
502927
513908
525342
537227
549568
562419
575779
589665
604119
619189
634884
651250
668364
686281
705133
724978
746022
768519
792638
818768
847452
879348
915437
956838
1.00568e+06
1.06594e+06
1.14339e+06
1.23379e+06
980896
469758
216215
194917
195287
196708
198041
199331
200683
201997
203182
204439
205820
207172
208706
210050
211175
212172
213088
213944
214755
215521
216223
216823
217278
217554
217656
217650
217575
217445
217270
217056
216816
216560
216300
216041
260596
260528
260410
260272
260035
259766
259460
259129
258780
258425
258075
257747
257456
257225
257066
257024
257135
257421
257902
258591
259490
260595
261892
263363
264994
266767
268673
270699
272826
275044
277330
279674
282072
284518
287016
289566
292170
294828
297541
300309
303127
305991
308894
311830
314795
317783
320790
323809
326832
329847
332842
335802
338712
341557
344318
346975
349502
351881
354100
356141
357955
359476
360714
361786
362737
363584
364345
365047
365720
366393
367080
367789
368513
369244
369984
370747
371551
372458
373519
374724
376059
377591
379354
381412
383782
386522
389665
393249
397293
401804
406797
412271
418225
424660
431565
438942
446776
455078
463835
473027
482675
492767
503317
514317
525773
537665
550016
562869
576236
590145
604620
619703
635412
651788
668906
686833
705697
725576
746678
769226
793495
819803
848610
880655
916903
958701
1.0079e+06
1.0688e+06
1.14739e+06
1.2348e+06
950834
446721
211980
194537
194981
196375
197670
198930
200249
201507
202629
203826
205134
206356
207749
208997
210067
211047
211972
212856
213704
214518
215287
215986
216580
217028
217293
217384
217372
217298
217171
216998
216789
216553
216301
216045
260135
260087
259959
259835
259614
259366
259084
258780
258462
258139
257823
257528
257272
257074
256945
256932
257072
257380
257881
258584
259493
260605
261905
263377
265007
266780
268686
270715
272845
275064
277353
279699
282098
284544
287042
289591
292191
294846
297556
300320
303136
305996
308897
311832
314795
317784
320792
323813
326839
329857
332854
335816
338729
341575
344339
346998
349529
351914
354140
356188
358010
359541
360790
361867
362820
363668
364426
365125
365793
366465
367159
367885
368637
369399
370168
370951
371776
372695
373759
374968
376313
377853
379615
381672
384048
386799
389962
393564
397623
402144
407144
412622
418582
425024
431937
439321
447165
455477
464247
473454
483112
493215
503777
514798
526281
538193
550563
563419
576787
590710
605192
620270
635989
652386
669525
687484
706380
726333
747531
770144
794538
821022
849996
882205
918623
960787
1.01069e+06
1.07217e+06
1.1522e+06
1.23484e+06
915841
421575
207859
194098
194624
195991
197238
198464
199739
200934
201982
203106
204317
205405
206673
207842
208875
209849
210792
211708
212596
213456
214280
215054
215752
216341
216781
217033
217114
217100
217027
216902
216733
216527
216294
216046
259652
259618
259491
259378
259178
258954
258700
258425
258139
257850
257569
257309
257087
256923
256826
256843
257015
257346
257867
258586
259508
260630
261935
263408
265037
266810
268716
270746
272877
275099
277390
279737
282138
284584
287081
289627
292226
294877
297584
300346
303158
306016
308914
311846
314808
317796
320806
323829
326856
329877
332876
335840
338755
341605
344371
347034
349571
351962
354195
356249
358079
359619
360880
361964
362921
363772
364530
365225
365888
366553
367247
367984
368759
369553
370357
371172
372028
372966
374036
375248
376602
378149
379915
381975
384359
387123
390304
393918
397988
402518
407529
413015
418984
425435
432356
439750
447604
455926
464708
473930
483599
493715
504289
515329
526839
538780
551177
564043
577417
591353
605842
620922
636660
653095
670282
688298
707251
727305
748635
771352
795844
822464
851611
884044
920669
963108
1.01369e+06
1.07615e+06
1.15757e+06
1.23472e+06
876118
395305
204013
193621
194197
195541
196736
197924
199143
200266
201229
202270
203372
204335
205503
206615
207623
208598
209561
210509
211437
212340
213214
214049
214828
215524
216106
216535
216774
216850
216833
216762
216639
216473
216270
216040
259162
259137
259021
258919
258742
258544
258319
258075
257823
257569
257323
257098
256911
256778
256716
256766
256967
257324
257867
258606
259543
260674
261984
263458
265087
266860
268767
270798
272931
275153
277446
279793
282195
284640
287136
289680
292276
294925
297630
300388
303198
306054
308949
311878
314839
317826
320836
323861
326890
329912
332913
335879
338797
341650
344420
347088
349631
352029
354268
356330
358167
359717
360989
362081
363045
363900
364661
365353
366008
366664
367352
368091
368881
369704
370547
371405
372305
373273
374357
375576
376934
378488
380260
382328
384720
387493
390681
394301
398380
402921
407944
413441
419420
425880
432812
440217
448084
456416
465208
474446
484129
494260
504846
515902
527433
539406
551839
564730
578125
592080
606593
621702
637482
653977
671241
689345
708390
728557
750020
772867
797439
824167
853470
886123
923037
965845
1.01696e+06
1.08056e+06
1.16345e+06
1.23199e+06
834955
366852
200551
193091
193719
195015
196157
197301
198456
199500
200366
201318
202308
203167
204262
205336
206331
207310
208291
209267
210230
211174
212095
212983
213826
214605
215297
215872
216290
216520
216590
216573
216502
216382
216217
216016
258685
258663
258565
258476
258324
258153
257958
257747
257528
257309
257098
256909
256756
256654
256628
256712
256939
257326
257894
258654
259607
260747
262063
263540
265170
266944
268852
270884
273017
275241
277533
279880
282281
284724
287218
289760
292353
294999
297701
300455
303261
306112
309004
311932
314891
317878
320889
323914
326945
329968
332970
335939
338859
341716
344492
347165
349715
352120
354366
356433
358278
359836
361120
362220
363190
364052
364818
365511
366162
366806
367482
368216
369011
369855
370736
371640
372593
373606
374718
375954
377321
378885
380665
382741
385138
387916
391105
394725
398806
403354
408386
413893
419883
426353
433297
440714
448593
456934
465735
474987
484685
494833
505434
516506
528056
540061
552536
565472
578910
592905
607474
622655
638509
655085
672442
690652
709818
730094
751656
774623
799303
826136
855571
888474
925689
968860
1.02087e+06
1.08534e+06
1.17062e+06
1.2237e+06
792182
337509
197555
192478
193190
194416
195499
196592
197674
198630
199395
200258
201141
201923
202973
204024
205012
205997
206991
207988
208982
209963
210925
211861
212759
213607
214384
215071
215639
216048
216269
216335
216319
216248
216128
215965
258245
258225
258146
258070
257941
257798
257634
257456
257272
257087
256911
256756
256635
256562
256568
256690
256947
257364
257960
258742
259710
260860
262180
263659
265289
267063
268970
271004
273139
275364
277657
280002
282402
284842
287334
289874
292466
295109
297808
300559
303359
306204
309090
312013
314971
317958
320970
323997
327028
330052
333056
336027
338950
341812
344592
347271
349826
352238
354490
356562
358414
359983
361278
362387
363366
364235
365008
365707
366357
366994
367656
368373
369160
370014
370924
371874
372882
373949
375105
376374
377764
379345
381137
383222
385626
388405
391591
395209
399288
403839
408874
414387
420385
426862
433817
441246
449136
457486
466295
475559
485275
495446
506071
517166
528735
540774
553297
566295
579801
593862
608515
623802
639760
656435
673884
692201
711500
731874
753495
776562
801368
828341
857936
890979
928663
972333
1.0249e+06
1.09097e+06
1.17797e+06
1.21079e+06
746447
309260
195025
191823
192577
193738
194760
195794
196798
197659
198323
199103
199895
200628
201653
202691
203676
204664
205668
206682
207698
208710
209709
210687
211635
212540
213389
214165
214848
215410
215810
216023
216086
216069
215999
215879
257875
257852
257792
257728
257622
257506
257371
257225
257074
256923
256778
256654
256562
256525
256565
256725
257017
257467
258088
258889
259871
261030
262354
263832
265462
267236
269144
271178
273314
275538
277830
280174
282571
285009
287497
290034
292623
295264
297960
300707
303502
306340
309220
312136
315089
318074
321085
324112
327144
330169
333175
336148
339075
341940
344724
347409
349969
352387
354645
356724
358583
360163
361472
362591
363578
364455
365236
365940
366594
367229
367883
368582
369350
370194
371117
372105
373164
374290
375500
376818
378248
379861
381675
383776
386190
388973
392158
395772
399847
404395
409429
414944
420947
427430
434395
441834
449735
458095
466913
476192
485929
496128
506786
517912
529511
541590
554165
567236
580830
594977
609732
625134
641208
657990
675522
693931
713337
733794
755467
778604
803573
830717
860498
893829
931794
976237
1.02973e+06
1.09696e+06
1.18585e+06
1.18959e+06
696619
282934
192980
191095
191897
192981
193939
194906
195827
196592
197163
197875
198596
199303
200315
201344
202328
203318
204328
205352
206386
207421
208451
209467
210458
211414
212323
213172
213947
214628
215184
215576
215782
215842
215824
215753
257604
257577
257531
257477
257389
257295
257185
257066
256945
256826
256716
256628
256568
256565
256649
256846
257170
257648
258292
259112
260105
261269
262594
264072
265700
267474
269381
271417
273554
275778
278069
280410
282804
285237
287721
290254
292840
295478
298170
300912
303702
306535
309408
312320
315268
318248
321256
324281
327313
330337
333344
336319
339248
342116
344904
347592
350157
352580
354843
356928
358795
360387
361709
362838
363833
364717
365505
366217
366879
367517
368167
368855
369603
370424
371338
372337
373436
374617
375889
377266
378751
380413
382266
384394
386830
389623
392815
396429
400501
405043
410073
415590
421594
428083
435057
442506
450420
458796
467629
476929
486694
496927
507628
518797
530439
542569
555201
568346
582031
596271
611124
626625
642799
659676
677279
695758
715233
735778
757519
780768
805868
833215
863294
896794
935319
980386
1.03475e+06
1.10379e+06
1.19449e+06
1.15672e+06
642848
259385
191286
190320
191133
192146
193034
193931
194768
195441
195934
196594
197265
197963
198969
199989
200971
201962
202974
204005
205049
206102
207157
208204
209233
210233
211195
212106
212958
213733
214412
214962
215346
215546
215602
215582
257446
257411
257378
257337
257268
257197
257113
257024
256932
256843
256766
256712
256690
256725
256846
257072
257427
257932
258597
259431
260432
261598
262921
264397
266022
267795
269703
271741
273879
276103
278392
280731
283120
285547
288026
290553
293133
295766
298453
301190
303974
306801
309670
312578
315523
318501
321507
324530
327560
330583
333589
336564
339493
342362
345150
347838
350404
352829
355095
357184
359058
360660
361995
363133
364134
365024
365821
366544
367218
367867
368519
369200
369929
370728
371617
372603
373715
374930
376259
377705
379254
380977
382883
385055
387526
390343
393553
397177
401253
405794
410823
416341
422348
428845
435829
443290
451221
459617
468475
477804
487605
497877
508625
519845
531545
543739
556433
569646
583410
597731
612664
628231
644471
661417
679089
697625
717151
737783
759653
783032
808265
835876
866202
900183
939144
984938
1.04051e+06
1.11124e+06
1.2028e+06
1.10954e+06
584788
239306
189888
189461
190308
191227
192047
192876
193633
194225
194658
195286
195922
196618
197619
198631
199608
200596
201608
202642
203694
204759
205831
206903
207964
209003
210010
210977
211893
212747
213524
214200
214743
215120
215313
215366
257460
257415
257392
257361
257307
257257
257197
257135
257072
257015
256967
256939
256947
257017
257170
257427
257811
258337
259018
259861
260865
262029
263348
264820
266442
268215
270124
272163
274303
276527
278815
281150
283534
285955
288427
290947
293520
296147
298828
301558
304337
307159
310023
312925
315866
318840
321842
324862
327889
330910
333913
336885
339813
342679
345466
348154
350720
353146
355415
357507
359385
360999
362347
363493
364501
365397
366202
366937
367626
368288
368949
369626
370339
371113
371973
372937
374039
375263
376627
378127
379740
381535
383507
385733
388253
391108
394350
397996
402089
406637
411671
417197
423210
429719
436715
444192
452144
460567
469460
478829
488674
498990
509791
521067
532835
545098
557851
571118
584937
599318
614306
629909
646184
663184
680926
699527
719111
739858
761891
785420
810892
838737
869412
903850
943377
990078
1.04666e+06
1.11969e+06
1.21093e+06
1.04731e+06
524304
222633
188658
188548
189404
190235
190990
191753
192442
192967
193356
193966
194578
195276
196271
197270
198240
199224
200234
201268
202322
203394
204480
205570
206657
207729
208775
209789
210762
211683
212541
213318
213991
214528
214897
215084
257685
257629
257612
257589
257545
257509
257465
257421
257380
257346
257324
257326
257364
257467
257648
257932
258337
258880
259571
260417
261420
262579
263892
265359
266979
268752
270663
272706
274847
277072
279359
281690
284069
286483
288947
291458
294024
296642
299316
302041
304814
307631
310490
313388
316324
319293
322289
325303
328325
331341
334340
337308
340232
343095
345879
348564
351129
353554
355823
357917
359798
361418
362776
363929
364940
365840
366653
367398
368105
368784
369460
370143
370848
371604
372436
373371
374449
375659
377035
378565
380225
382082
384121
386410
388988
391890
395174
398851
402970
407536
412587
418128
424153
430681
437692
445191
453170
461627
470564
479977
489872
500236
511092
522421
534254
546580
559388
572699
586558
600984
616017
631649
647956
665006
682826
701519
721193
742094
764281
788057
813811
841863
872976
907943
948218
995500
1.05381e+06
1.12955e+06
1.21798e+06
971173
464045
209280
187508
187603
188429
189179
189877
190585
191216
191689
192048
192648
193241
193941
194926
195910
196870
197848
198852
199883
200938
202013
203106
204211
205317
206415
207495
208549
209571
210551
211478
212339
213116
213784
214315
214677
258111
258042
258029
258013
257979
257957
257928
257902
257881
257867
257867
257894
257960
258088
258292
258597
259018
259571
260265
261110
262107
263259
264566
266028
267647
269421
271335
273380
275524
277750
280035
282363
284737
287144
289600
292102
294659
297269
299936
302655
305423
308235
311089
313982
316911
319873
322862
325869
328884
331894
334888
337850
340769
343627
346408
349090
351652
354077
356344
358437
360317
361941
363305
364463
365477
366381
367201
367958
368681
369377
370071
370764
371470
372217
373025
373931
374975
376155
377519
379050
380734
382639
384734
387080
389716
392669
395998
399713
403865
408454
413530
419090
425132
431681
438708
446237
454247
462746
471733
481194
491144
501558
512477
523863
535758
548139
560997
574356
588256
602733
617813
633490
649852
666966
684890
703691
723518
744588
766944
791039
817013
845447
876960
912537
953341
1.00182e+06
1.06211e+06
1.14023e+06
1.21887e+06
892016
405413
199155
186401
186618
187398
188080
188731
189393
189977
190409
190748
191342
191916
192614
193586
194551
195499
196468
197465
198491
199543
200619
201716
202828
203948
205066
206173
207262
208325
209356
210344
211277
212140
212916
213580
214105
258763
258677
258669
258660
258634
258620
258603
258591
258584
258586
258606
258654
258742
258889
259112
259431
259861
260417
261110
261950
262939
264082
265383
266842
268461
270237
272155
274204
276350
278577
280862
283187
285555
287956
290404
292898
295446
298050
300710
303423
306186
308993
311841
314727
317648
320601
323581
326579
329586
332588
335576
338533
341446
344300
347077
349756
352314
354735
356999
359087
360963
362586
363951
365111
366126
367032
367858
368623
369359
370072
370783
371491
372208
372959
373756
374645
375656
376803
378142
379648
381327
383250
385372
387758
390444
393443
396808
400556
404739
409355
414458
420038
426100
432673
439721
447287
455334
463885
472931
482449
492470
502945
513938
525379
537333
549767
562684
576107
590068
604616
619761
635529
651980
669195
687242
706183
726218
747426
770035
794394
820640
849450
881441
917656
959052
1.00919e+06
1.0706e+06
1.15162e+06
1.2146e+06
811912
349845
192102
185296
185597
186337
186956
187571
188198
188744
189142
189466
190053
190605
191298
192252
193197
194130
195087
196075
197093
198140
199213
200310
201427
202556
203689
204816
205933
207031
208105
209145
210141
211078
211944
212718
213378
259639
259536
259533
259530
259509
259502
259493
259490
259493
259508
259543
259607
259710
259871
260105
260432
260865
261420
262107
262939
263919
265056
266352
267811
269432
271211
273132
275185
277334
279561
281845
284168
286531
288926
291368
293855
296397
298994
301649
304357
307114
309914
312754
315630
318541
321483
324452
327440
330438
333433
336414
339367
342277
345129
347903
350579
353134
355551
357809
359891
361761
363379
364743
365902
366917
367823
368652
369424
370171
370896
371623
372347
373082
373846
374646
375528
376514
377632
378936
380400
382054
383967
386088
388486
391192
394215
397606
401384
405597
410236
415362
420958
427044
433646
440728
448346
456446
465069
474185
483779
493879
504424
515498
527001
539037
551539
564537
578046
592095
606743
621978
637880
654443
671805
689988
709112
729340
750723
773625
798147
824755
853904
886515
922985
965750
1.01705e+06
1.08024e+06
1.16505e+06
1.1941e+06
734007
299622
187443
184199
184600
185263
185833
186422
187021
187534
187899
188207
188782
189311
189995
190928
191850
192765
193707
194682
195691
196730
197797
198892
200009
201143
202285
203429
204567
205694
206804
207889
208938
209940
210882
211749
212521
260734
260611
260613
260616
260599
260597
260593
260595
260605
260630
260674
260747
260860
261030
261269
261598
262029
262579
263259
264082
265056
266188
267484
268945
270569
272353
274277
276332
278483
280711
282994
285314
287674
290064
292501
294982
297520
300113
302764
305466
308216
311009
313839
316705
319604
322535
325494
328472
331462
334450
337427
340376
343284
346133
348905
351577
354126
356535
358785
360857
362716
364326
365686
366844
367859
368766
369597
370374
371127
371861
372600
373338
374094
374877
375693
376583
377558
378661
379937
381355
382974
384855
386947
389330
392029
395049
398441
402228
406451
411109
416263
421888
428019
434667
441807
449497
457666
466376
475568
485253
495444
506086
517271
528859
540995
553569
566666
580276
594442
609210
624565
640628
657322
674880
693187
712546
732933
754552
777654
802432
829398
858867
892007
929084
973234
1.02511e+06
1.09165e+06
1.17899e+06
1.15316e+06
651705
258763
184470
183135
183597
184203
184736
185303
185875
186354
186684
186975
187533
188035
188706
189615
190510
191406
192330
193291
194287
195315
196375
197464
198579
199713
200861
202014
203168
204318
205457
206579
207675
208733
209741
210687
211555
262032
261890
261895
261902
261887
261888
261886
261892
261905
261935
261984
262063
262180
262354
262594
262921
263348
263892
264566
265383
266352
267484
268782
270247
271876
273664
275592
277649
279801
282028
284309
286627
288984
291370
293803
296281
298816
301406
304053
306750
309492
312276
315095
317950
320838
323758
326706
329676
332658
335641
338612
341558
344464
347311
350080
352748
355292
357693
359935
361998
363848
365452
366809
367968
368982
369890
370721
371500
372254
372991
373738
374488
375264
376069
376910
377818
378796
379896
381149
382529
384108
385945
387991
390340
393010
396005
399382
403168
407394
412071
417253
422917
429111
435827
443055
450839
459106
467927
477217
487017
497307
508054
519346
531035
543295
555968
569197
582921
597229
612125
627622
643842
660672
678421
696847
716449
736926
758824
782074
807212
834416
864479
897880
935979
981179
1.03453e+06
1.104e+06
1.1929e+06
1.08419e+06
564712
228146
182544
182127
182623
183187
183683
184227
184769
185211
185502
185773
186310
186781
187436
188316
189182
190055
190959
191901
192882
193898
194947
196028
197137
198270
199418
200577
201741
202908
204071
205223
206357
207463
208529
209543
210492
263515
263353
263359
263369
263357
263358
263357
263363
263377
263408
263458
263540
263659
263832
264072
264397
264820
265359
266028
266842
267811
268945
270247
271718
273352
275146
277078
279136
281288
283515
285794
288109
290463
292847
295277
297754
300286
302874
305516
308206
310940
313713
316521
319365
322243
325155
328097
331061
334038
337016
339983
342926
345829
348674
351440
354103
356640
359032
361263
363317
365157
366755
368110
369268
370283
371191
372022
372803
373558
374298
375050
375809
376602
377427
378293
379223
380215
381324
382566
383922
385475
387271
389273
391583
394215
397175
400531
404312
408542
413248
418471
424197
430476
437281
444623
452516
460900
469839
479238
489171
499573
510455
521871
533692
546086
558870
572241
586072
600527
615534
631182
647518
664499
682396
700943
720735
741306
763455
786843
812398
839804
870484
904278
943622
989595
1.04546e+06
1.11785e+06
1.20362e+06
988580
477046
206567
181208
181160
181691
182196
182670
183193
183705
184108
184357
184604
185114
185553
186186
187034
187869
188715
189596
190518
191481
192481
193517
194587
195688
196815
197961
199121
200292
201469
202650
203826
204991
206137
207252
208326
209345
265159
264978
264985
264998
264987
264988
264987
264994
265007
265037
265087
265170
265289
265462
265700
266022
266442
266979
267647
268461
269432
270569
271876
273352
274991
276790
278723
280783
282934
285159
287436
289749
292100
294483
296914
299391
301923
304508
307145
309827
312551
315314
318113
320949
323820
326727
329665
332625
335597
338570
341533
344471
347370
350211
352972
355629
358159
360544
362767
364812
366646
368242
369598
370759
371777
372687
373520
374303
375057
375798
376550
377315
378120
378959
379848
380802
381816
382941
384181
385531
387072
388839
390808
393091
395695
398628
401976
405766
410017
414776
420061
425874
432260
439176
446654
454671
463194
472264
481792
491872
502396
513428
524962
536924
549436
562336
575839
589779
604374
619484
635270
651682
668803
686757
705451
725319
746017
768338
791929
817778
845511
876745
911149
951709
998614
1.05735e+06
1.13359e+06
1.20875e+06
880215
396258
192369
180171
180299
180811
181263