/*--------------------------------*- C++ -*----------------------------------*\
  =========                 |
  \\      /  F ield         | OpenFOAM: The Open Source CFD Toolbox
   \\    /   O peration     | Website:  https://openfoam.org
    \\  /    A nd           | Version:  13
     \\/     M anipulation  |
\*---------------------------------------------------------------------------*/
FoamFile
{
    format      ascii;
    class       surfaceScalarField;
    location    "0.0019";
    object      phi;
}
// * * * * * * * * * * * * * * * * * * * * * * * * * * * * * * * * * * * * * //

dimensions      [1 0 -1 0 0 0 0];

internalField   nonuniform List<scalar> 
66301
(
0.00380568
0.00380568
0.00809663
0.00330535
0.0117803
0.00388603
0.0150154
0.00424941
0.0181259
0.00432287
0.0211954
0.00429725
0.0242213
0.004267
0.0271544
0.0042709
0.0300315
0.00423386
0.0329602
0.00409375
0.0359879
0.00391733
0.039071
0.00379672
0.0421261
0.00376823
0.0450815
0.00381996
0.0478881
0.00391853
0.0505552
0.0040303
0.053064
0.00415394
0.0553917
0.00428315
0.057548
0.00440732
0.0595462
0.00453042
0.0614266
0.00465435
0.0632365
0.00479248
0.0650175
0.00494594
0.066806
0.00510926
0.068629
0.00527684
0.0705154
0.00543693
0.0725035
0.0055758
0.0746254
0.00569649
0.0769115
0.00580142
0.0794019
0.00587953
0.0821049
0.00595993
0.0850524
0.00601329
0.0882304
0.0060786
0.0916501
0.00612697
0.095307
0.00616962
0.0991749
0.00622616
0.103226
0.0062986
0.107429
0.00638982
0.111743
0.00651192
0.116125
0.00666485
0.120553
0.00682925
0.125024
0.00698492
0.129539
0.00712258
0.134094
0.00724621
0.138676
0.00736295
0.143271
0.00747246
0.147866
0.00757257
0.152448
0.00766291
0.157004
0.00773685
0.161526
0.00779129
0.165988
0.00783578
0.170347
0.00788427
0.174552
0.0079412
0.178552
0.00799885
0.182305
0.00804468
0.185772
0.00807087
0.18891
0.00808365
0.191668
0.00810259
0.193989
0.00814765
0.195805
0.00822045
0.196937
0.00829742
0.197201
0.00838272
0.19712
0.00847055
0.196726
0.00855636
0.195983
0.00862469
0.194979
0.00866122
0.193801
0.00867998
0.192543
0.00868974
0.191298
0.00869432
0.190127
0.00871208
0.189067
0.00874143
0.188124
0.00878057
0.187265
0.00883699
0.186411
0.00895476
0.185484
0.00914576
0.184456
0.00941962
0.183565
0.00948182
0.183543
0.00922055
0.184923
0.00782125
0.187405
0.00718948
0.191373
0.00740034
0.193588
0.00693313
0.194452
0.00984569
0.194654
0.0117037
0.19529
0.012471
0.197365
0.011935
0.200206
0.0121928
0.204072
0.0122959
0.209457
0.0120399
0.21635
0.0118357
0.224441
0.0119223
0.23349
0.0122337
0.243544
0.0125215
0.254722
0.0126803
0.267204
0.012655
0.281056
0.0125635
0.29627
0.0124874
0.312792
0.0124669
0.330445
0.0126193
0.34927
0.0127377
0.369249
0.0128693
0.390242
0.0131665
0.412456
0.013276
0.435722
0.0135735
0.460321
0.0136282
0.486127
0.0138196
0.513184
0.0140686
0.541786
0.0140953
0.572033
0.0140752
0.603688
0.0143166
0.636701
0.0147252
0.671458
0.0149274
0.708269
0.0149966
0.747191
0.0152197
0.788402
0.0155195
0.831982
0.0160001
0.878145
0.0165902
0.927317
0.0171463
0.980166
0.0175828
1.03743
0.0178979
1.10007
0.0179971
1.16915
0.0178804
1.24658
0.0178034
1.33499
0.0175784
1.43793
0.0178763
1.5611
0.0186159
1.713
0.0198973
1.91213
0.0228889
2.19515
0.0281067
2.5442
0.0301324
2.62815
0.01535
1.17188
0.00650432
0.319709
0.00541812
0.304494
0.00805843
0.321297
0.00786764
0.351177
0.00778118
0.389388
0.00788152
0.442535
0.00819171
0.512156
0.00855522
0.591793
0.00878763
0.667181
0.00867773
0.724611
0.00813768
0.75858
0.00701249
0.776876
0.00618847
0.790258
0.00550354
0.802019
0.00496589
0.812934
0.00479464
0.823444
0.00507702
0.832269
0.00521868
0.83704
0.00283821
0.838456
0.00215808
0.838547
0.00150546
0.838352
0.00115295
0.837633
0.00078448
0.836337
0.000447734
0.834428
0.000186679
0.832166
0.000154148
0.829872
2.44601e-05
0.82759
-1.96887e-05
0.825341
-3.10703e-05
0.82315
-3.01196e-05
0.821033
-2.42226e-05
0.818985
-1.76341e-05
0.81699
-1.19467e-05
0.815032
-8.3496e-06
-6.68767e-06
0.00330535
0.00809663
0.0071062
0.0071062
0.0117738
0.00679237
0.0159885
0.007555
0.0199548
0.00780416
0.0238219
0.00779562
0.0276548
0.00771802
0.0314379
0.00769225
0.0350939
0.00769955
0.0385669
0.00765582
0.0418574
0.00757944
0.0449857
0.00754832
0.0479766
0.00759517
0.0508513
0.00771169
0.0536123
0.00787203
0.0562947
0.00803176
0.0589022
0.00819709
0.0613842
0.00840425
0.0637428
0.0086037
0.065977
0.00881562
0.0681277
0.00902904
0.0702491
0.0092617
0.0723908
0.00951771
0.0745951
0.0097884
0.076888
0.0100683
0.079282
0.0103487
0.0817994
0.0106008
0.0844628
0.0108271
0.0872902
0.0110358
0.0903245
0.0111896
0.093549
0.0113723
0.0969946
0.0115024
0.100635
0.0116685
0.104472
0.0118102
0.108504
0.0119392
0.112694
0.012106
0.117011
0.0123073
0.121438
0.0125304
0.125961
0.0127887
0.130563
0.0130843
0.13524
0.0133846
0.14
0.013657
0.144852
0.0138884
0.149796
0.0140863
0.154825
0.0142651
0.15992
0.0144339
0.165052
0.0145994
0.170194
0.0147583
0.175318
0.014902
0.180398
0.0150227
0.185401
0.0151312
0.190284
0.0152482
0.194997
0.0153811
0.199487
0.0155162
0.203704
0.0156337
0.207595
0.0157292
0.211104
0.015818
0.214175
0.0159286
0.216755
0.0160848
0.218773
0.0162811
0.220054
0.0165001
0.220416
0.0167319
0.220352
0.0169362
0.219975
0.0171116
0.219246
0.0172638
0.218207
0.0173794
0.216929
0.0174731
0.215492
0.0175591
0.213972
0.017651
0.212462
0.0177417
0.211013
0.0178442
0.20964
0.0179631
0.208349
0.0180766
0.207166
0.0182066
0.206174
0.0183086
0.205265
0.0186436
0.203801
0.0195177
0.200866
0.0211031
0.195886
0.022063
0.191359
0.0210115
0.190292
0.0175565
0.191739
0.0157718
0.19723
0.0170561
0.203115
0.0188048
0.207989
0.0206203
0.212572
0.021134
0.218143
0.0216393
0.224961
0.0217696
0.232673
0.0218488
0.24124
0.0220308
0.250722
0.022477
0.261196
0.0230963
0.272793
0.0235432
0.285627
0.0237577
0.299629
0.0238521
0.314752
0.0239348
0.3311
0.0239335
0.348575
0.0240803
0.36721
0.0243836
0.387029
0.0246198
0.407921
0.0249929
0.430062
0.0253838
0.453302
0.0257504
0.477964
0.0260172
0.503649
0.0264071
0.530458
0.0269533
0.558861
0.0271539
0.588695
0.0273021
0.619698
0.0277503
0.652175
0.0282883
0.686535
0.0287087
0.72289
0.0289542
0.761263
0.0291222
0.801438
0.0297089
0.843466
0.0305858
0.887904
0.0314348
0.934957
0.032566
0.985453
0.0334301
1.04009
0.0340192
1.09919
0.0350142
1.16406
0.0356359
1.23634
0.0361576
1.31787
0.0368962
1.41087
0.0370057
1.51724
0.0380348
1.64144
0.0403872
1.79126
0.044393
1.98264
0.05067
2.24628
0.0567507
2.58175
0.0603586
2.68046
0.054245
1.26896
0.0331128
0.336312
0.0173277
0.317643
0.0165705
0.332598
0.0164882
0.361934
0.0164511
0.399502
0.0166497
0.45247
0.0168334
0.522882
0.0168464
0.604306
0.0167753
0.681849
0.0166324
0.740198
0.016681
0.773874
0.0149966
0.791242
0.013599
0.803259
0.0129162
0.813106
0.0122729
0.821465
0.0114459
0.828232
0.01022
0.832621
0.00876906
0.835465
0.00646622
0.837336
0.00469046
0.837812
0.00328662
0.837638
0.00237038
0.83701
0.0016812
0.835924
0.00106471
0.834329
0.000573952
0.832382
0.000233417
0.830166
6.01923e-05
0.827871
-1.18958e-05
0.825611
-3.09651e-05
0.823417
-4.57374e-05
0.821287
-3.36863e-05
0.81922
-2.16775e-05
0.817207
-1.31578e-05
0.815236
-8.1489e-06
-5.97097e-06
0.00388603
0.0117803
0.00679237
0.0117738
0.0105445
0.0105445
0.0146079
0.0109695
0.0186226
0.0111964
0.0225417
0.0112029
0.0264041
0.0111034
0.0301852
0.0110846
0.0337973
0.0111866
0.0371837
0.0112941
0.0403482
0.011368
0.0433274
0.0114562
0.0461677
0.011582
0.0489051
0.0117486
0.0515479
0.0119497
0.0541348
0.0121369
0.0566546
0.0123362
0.05906
0.0126081
0.0613511
0.0128765
0.063533
0.0131675
0.065647
0.0134589
0.0677423
0.0137732
0.0698663
0.014123
0.0720623
0.0144904
0.0743561
0.0148711
0.0767607
0.0152593
0.079296
0.015615
0.0819811
0.0159401
0.084833
0.0162493
0.0878827
0.016486
0.0911146
0.0167761
0.0945518
0.0169974
0.09817
0.0172779
0.101969
0.0175288
0.105935
0.0177711
0.110032
0.0180746
0.114238
0.0184239
0.118542
0.018792
0.122938
0.0191887
0.127422
0.0196176
0.132003
0.0200343
0.136689
0.0204013
0.141488
0.0207065
0.146396
0.0209631
0.151401
0.0211925
0.156481
0.0214128
0.161605
0.0216368
0.166744
0.0218588
0.171867
0.0220688
0.176944
0.0222567
0.181937
0.0224345
0.186802
0.022625
0.191492
0.0228349
0.195959
0.0230458
0.200151
0.0232372
0.204009
0.0234122
0.207471
0.0235928
0.210477
0.0238093
0.212972
0.0240836
0.214898
0.0244124
0.216104
0.0247683
0.216403
0.025108
0.216302
0.0254108
0.215862
0.0256847
0.215083
0.0259252
0.214
0.0261261
0.212669
0.0263071
0.211163
0.0264864
0.209557
0.0266794
0.207939
0.0268635
0.206365
0.0270586
0.204872
0.0272608
0.20348
0.0274238
0.202221
0.0275556
0.201088
0.0276497
0.200062
0.0280532
0.199085
0.0291103
0.198652
0.030452
0.198712
0.0314178
0.198596
0.0308546
0.196993
0.0290597
0.196541
0.027641
0.197839
0.0277045
0.199942
0.0289471
0.202956
0.0302865
0.207026
0.0309083
0.21256
0.0312153
0.219301
0.0313565
0.226912
0.0317306
0.235421
0.0322294
0.244976
0.0329106
0.255666
0.033711
0.26751
0.0343056
0.280504
0.0346588
0.29456
0.0349734
0.309664
0.0352909
0.325889
0.0354574
0.343208
0.0357998
0.361671
0.0362587
0.38128
0.0366447
0.402001
0.0372088
0.423936
0.0377109
0.44703
0.0382642
0.471394
0.0386271
0.496843
0.0393017
0.523522
0.0400549
0.551646
0.0403088
0.581104
0.0406963
0.611889
0.0414475
0.644259
0.0420807
0.678424
0.0424646
0.714379
0.0427937
0.752127
0.0431908
0.791674
0.0442099
0.833232
0.0456029
0.877253
0.0468236
0.924034
0.0483751
0.97421
0.0494921
1.02836
0.0503285
1.08704
0.0518394
1.15148
0.0527656
1.22297
0.0537163
1.30277
0.0551993
1.39305
0.0565421
1.49673
0.0598919
1.61973
0.0643468
1.77116
0.0687792
1.96715
0.074326
2.23755
0.0782865
2.56695
0.0850445
2.65119
0.087526
1.21675
0.0654112
0.327552
0.0291594
0.310777
0.0251643
0.326501
0.024955
0.355892
0.0248673
0.393775
0.024975
0.447136
0.0249369
0.517682
0.024712
0.598957
0.0244329
0.676043
0.0243722
0.734184
0.0244088
0.767738
0.0222552
0.785394
0.0206138
0.797952
0.0197222
0.808237
0.0186963
0.81668
0.0173639
0.823446
0.0154466
0.828498
0.0129013
0.832209
0.0101509
0.834837
0.00762129
0.836111
0.00543922
0.836235
0.00375673
0.835852
0.0026114
0.835072
0.00175174
0.833804
0.00107056
0.832074
0.000557993
0.830036
0.000232391
0.82785
4.99585e-05
0.825624
-2.48573e-05
0.823432
-4.52154e-05
0.821304
-4.5536e-05
0.819234
-3.10822e-05
0.817215
-1.83975e-05
0.815239
-1.04146e-05
-6.49531e-06
0.00424941
0.0150154
0.007555
0.0159885
0.0109695
0.0146079
0.0146903
0.0146903
0.0183872
0.014865
0.0220243
0.0148568
0.0256235
0.0147279
0.0291958
0.0146745
0.0326911
0.0147888
0.0360538
0.0149596
0.0392585
0.0151218
0.0423085
0.0152986
0.0452253
0.0154971
0.048028
0.0157228
0.0507146
0.0159813
0.0533343
0.016212
0.0558656
0.0164693
0.0582733
0.0168064
0.0605671
0.0171461
0.0627533
0.0175146
0.0648704
0.0178833
0.066968
0.0182797
0.0690959
0.0187214
0.0712981
0.0191814
0.0736027
0.019656
0.0760236
0.0201431
0.0785778
0.0205957
0.0812814
0.0210176
0.0841462
0.0214302
0.0871962
0.0217615
0.0904173
0.0221729
0.0938283
0.0225041
0.0974105
0.0229117
0.101165
0.0232816
0.105076
0.0236458
0.109115
0.0240893
0.113261
0.024584
0.117508
0.0250937
0.121854
0.0256242
0.126302
0.026174
0.130859
0.0266941
0.135532
0.0271476
0.140322
0.0275242
0.145223
0.0278412
0.150222
0.0281228
0.155301
0.0283929
0.160433
0.0286686
0.165586
0.0289481
0.170728
0.0292215
0.17582
0.0294788
0.180822
0.0297322
0.185688
0.0300033
0.190373
0.0302953
0.194831
0.0305861
0.199009
0.0308571
0.202847
0.0311184
0.20628
0.0313967
0.209247
0.0317195
0.211711
0.0321053
0.213629
0.0325514
0.214854
0.0330172
0.215204
0.0334552
0.215112
0.0338443
0.214718
0.0341862
0.214016
0.0345016
0.213018
0.0347869
0.211764
0.0350629
0.210312
0.0353495
0.208732
0.0356609
0.207091
0.0359726
0.205455
0.0362933
0.20387
0.0366068
0.202352
0.0368668
0.200915
0.0370681
0.199538
0.0372464
0.198332
0.0376633
0.197646
0.0384488
0.197787
0.0393437
0.198464
0.0399904
0.1989
0.0400637
0.198676
0.0395347
0.19843
0.0387824
0.198697
0.0386264
0.200048
0.0393527
0.202695
0.0402908
0.206628
0.0408826
0.211798
0.0411735
0.218035
0.0414129
0.225274
0.0419459
0.233586
0.042592
0.243094
0.043356
0.253857
0.044207
0.265844
0.0449016
0.27897
0.0454182
0.293134
0.0459834
0.308323
0.0465588
0.324557
0.0469628
0.341831
0.0475554
0.36021
0.0482013
0.379673
0.0487923
0.400243
0.0495503
0.421999
0.0501753
0.444918
0.0509069
0.469045
0.0514148
0.494325
0.0523261
0.520922
0.053188
0.54883
0.0536082
0.57801
0.0543096
0.608595
0.0553009
0.640734
0.0560395
0.674481
0.0565289
0.709829
0.0571116
0.746889
0.0578436
0.785918
0.0591805
0.827241
0.0608486
0.871204
0.062303
0.918136
0.0641186
0.968468
0.0655004
1.02268
0.0667393
1.08152
0.0687275
1.14593
0.070217
1.21691
0.0718014
1.29578
0.0743913
1.38518
0.0770009
1.48938
0.0812853
1.61431
0.0862697
1.76811
0.0907506
1.96586
0.0968565
2.24024
0.10349
2.56952
0.116976
2.64523
0.119956
1.16397
0.0863816
0.32358
0.0383342
0.30886
0.0334553
0.325437
0.0332248
0.354919
0.0330177
0.393057
0.0329635
0.446673
0.0327884
0.517266
0.0325236
0.598372
0.0321918
0.674964
0.0324429
0.732216
0.0323684
0.764948
0.0296744
0.782448
0.027619
0.794955
0.0263268
0.804808
0.02463
0.812461
0.0225322
0.818557
0.0199596
0.823511
0.0169764
0.827617
0.013855
0.830957
0.0108115
0.83325
0.00799778
0.834169
0.00558121
0.834156
0.00379779
0.833724
0.00258579
0.832852
0.00171325
0.831475
0.00103236
0.829721
0.000530994
0.827729
0.000209012
0.825608
3.6212e-05
0.823452
-3.10188e-05
0.821326
-4.31764e-05
0.819253
-4.46728e-05
0.817227
-3.01844e-05
0.815244
-1.76736e-05
-1.00435e-05
0.00432287
0.0181259
0.00780416
0.0199548
0.0111964
0.0186226
0.014865
0.0183872
0.0185167
0.0185167
0.0220919
0.0185292
0.0255894
0.0184275
0.0290361
0.0183745
0.0324247
0.0184904
0.0357311
0.0186798
0.0389368
0.0188762
0.0420387
0.0190929
0.045043
0.0193302
0.0479513
0.0195979
0.0507481
0.0199088
0.053469
0.0201882
0.0560852
0.0205212
0.0585698
0.0209302
0.0609273
0.0213529
0.0631662
0.0218077
0.0653237
0.0222639
0.0674515
0.0227522
0.0696008
0.0232911
0.0718149
0.0238498
0.0741229
0.0244235
0.0765391
0.0250148
0.0790787
0.0255726
0.0817551
0.0261025
0.0845773
0.0266298
0.087566
0.0270745
0.0907102
0.0276252
0.0940261
0.0280867
0.0975017
0.0286345
0.101141
0.0291326
0.10493
0.0296243
0.108854
0.0301993
0.112907
0.0308197
0.117085
0.0314446
0.121393
0.0320779
0.125834
0.0327164
0.130411
0.0333138
0.135119
0.0338403
0.139947
0.0342878
0.144878
0.0346749
0.149897
0.0350241
0.15498
0.0353603
0.160105
0.0357008
0.165244
0.0360464
0.170364
0.0363897
0.175427
0.0367232
0.180392
0.0370601
0.185214
0.0374193
0.189847
0.0378015
0.194243
0.0381828
0.198348
0.0385461
0.202102
0.0389033
0.205443
0.0392826
0.208321
0.0397092
0.210721
0.0401966
0.212605
0.0407334
0.213817
0.041278
0.214206
0.04179
0.214135
0.0422449
0.213779
0.04264
0.213133
0.0430167
0.212213
0.0433701
0.211052
0.0437239
0.209706
0.0440985
0.208236
0.0445115
0.206706
0.0449367
0.205177
0.0453784
0.203697
0.0458067
0.202275
0.0461874
0.200904
0.0465072
0.19956
0.0468254
0.198361
0.0472785
0.197599
0.047847
0.19759
0.048439
0.19813
0.0487797
0.198895
0.048995
0.199577
0.0489689
0.200094
0.0487559
0.200893
0.048804
0.202486
0.0495704
0.205234
0.0504044
0.209143
0.0509775
0.214051
0.0513865
0.219898
0.0518091
0.226767
0.0525026
0.234784
0.0532439
0.244033
0.0540578
0.254531
0.0549569
0.26624
0.0557403
0.279084
0.0564146
0.292998
0.0571896
0.307988
0.0579608
0.324031
0.0585778
0.341141
0.0593833
0.359379
0.0601776
0.378697
0.0609682
0.399146
0.0618878
0.42077
0.0626369
0.443567
0.0635314
0.467553
0.0642087
0.492778
0.0652894
0.519375
0.0662078
0.547211
0.0668658
0.576337
0.0678606
0.606937
0.0690287
0.639019
0.0699635
0.672564
0.0707499
0.707654
0.0717087
0.74449
0.0728284
0.783421
0.0744034
0.824815
0.0761557
0.868903
0.077754
0.916043
0.0797304
0.966541
0.0814059
1.0208
0.083193
1.07973
0.0855975
1.14404
0.0876994
1.21481
0.090179
1.29396
0.0936423
1.3841
0.0974389
1.4896
0.102261
1.61535
0.107865
1.76899
0.113582
1.9667
0.120843
2.24539
0.13122
2.57058
0.147475
2.63315
0.148071
1.10765
0.103984
0.321737
0.0469685
0.308949
0.0417031
0.326176
0.0413861
0.355629
0.0410724
0.393767
0.0408672
0.44742
0.0406336
0.517878
0.0404244
0.598546
0.0401191
0.674397
0.0405815
0.730599
0.0403085
0.762534
0.0370326
0.779635
0.0343959
0.791626
0.0326214
0.800744
0.0302559
0.807612
0.0274913
0.813124
0.0244026
0.81788
0.021056
0.822154
0.0175843
0.825979
0.0141641
0.829135
0.0109001
0.831184
0.00791866
0.831998
0.00546673
0.831975
0.00369596
0.831505
0.0025115
0.830567
0.00165784
0.829169
0.000985083
0.82744
0.000501269
0.825501
0.000193672
0.823445
2.94942e-05
0.821351
-3.37209e-05
0.819279
-4.44281e-05
0.81725
-4.55586e-05
0.815258
-3.08806e-05
-1.79511e-05
0.00429725
0.0211954
0.00779562
0.0238219
0.0112029
0.0225417
0.0148568
0.0220243
0.0185292
0.0220919
0.0221343
0.0221343
0.0256542
0.0220818
0.02911
0.0220525
0.0325042
0.0221803
0.0358251
0.0223842
0.0390609
0.0226029
0.042209
0.0228466
0.0452689
0.0231167
0.0482341
0.0234277
0.0510854
0.0237956
0.0538466
0.0241318
0.0564885
0.0245531
0.0589935
0.0250371
0.0613618
0.025547
0.0636078
0.0260881
0.0657689
0.0266337
0.0678978
0.0272151
0.0700442
0.0278521
0.0722495
0.0285103
0.0745429
0.0291835
0.0769395
0.0298798
0.0794531
0.0305493
0.0820957
0.0311951
0.084877
0.0318452
0.0878172
0.0324111
0.0909122
0.0331003
0.0941789
0.0336914
0.09761
0.0343743
0.101208
0.0349965
0.10496
0.0356143
0.108859
0.0363077
0.112903
0.0370348
0.11709
0.0377601
0.121423
0.0384781
0.125904
0.0391917
0.130529
0.0398592
0.135283
0.0404616
0.140149
0.0409913
0.145105
0.0414661
0.150131
0.0419027
0.155205
0.0423244
0.160306
0.0427462
0.16541
0.0431698
0.170488
0.0435912
0.175503
0.0440064
0.180418
0.0444298
0.185191
0.0448776
0.189776
0.04535
0.194124
0.0458243
0.198176
0.0462852
0.201871
0.0467431
0.20515
0.0472231
0.207981
0.047746
0.210359
0.04832
0.212242
0.0489297
0.213469
0.0495363
0.213897
0.0501095
0.213844
0.050626
0.213496
0.0510787
0.212863
0.0515185
0.211965
0.051935
0.210839
0.0523549
0.209541
0.0527969
0.208133
0.0532869
0.206678
0.053798
0.205231
0.0543405
0.203844
0.0548718
0.202533
0.0553678
0.201297
0.0558003
0.200124
0.0562414
0.199095
0.0567255
0.198365
0.0572101
0.198237
0.0576735
0.198443
0.0579736
0.198925
0.0582445
0.199593
0.0583833
0.20031
0.0585592
0.201374
0.0588842
0.203233
0.0597128
0.206073
0.0605387
0.209929
0.0611155
0.214707
0.0616641
0.220455
0.0622578
0.227292
0.0630715
0.235313
0.0638871
0.244552
0.0647597
0.255
0.065733
0.266617
0.0666281
0.279363
0.0674552
0.293208
0.0684076
0.308164
0.0693372
0.324178
0.070163
0.341272
0.0711663
0.359506
0.0720989
0.378815
0.0730967
0.399268
0.0741685
0.42088
0.0750653
0.443654
0.0761408
0.467609
0.0770212
0.49284
0.0782529
0.51944
0.079243
0.547268
0.0801572
0.576432
0.0813983
0.607104
0.0827051
0.639249
0.0838806
0.672854
0.0850291
0.708083
0.0863445
0.745141
0.0878046
0.784327
0.0896055
0.82596
0.0914376
0.870169
0.0932704
0.917351
0.0954793
0.967805
0.0975071
1.02192
0.0999117
1.0807
0.102717
1.14489
0.105474
1.21571
0.108863
1.29539
0.112892
1.38632
0.117664
1.49254
0.123029
1.61891
0.129154
1.77368
0.136266
1.97374
0.145206
2.25883
0.158488
2.57636
0.177483
2.62273
0.175371
1.03795
0.120857
0.31877
0.0552994
0.307862
0.0498155
0.325813
0.0494164
0.355263
0.049009
0.393399
0.0487061
0.447127
0.0484416
0.517597
0.0482298
0.597978
0.0479259
0.673146
0.0485097
0.728489
0.0479833
0.759701
0.0441454
0.776067
0.0408211
0.787171
0.0385334
0.795508
0.0356027
0.801814
0.0323185
0.806998
0.0288061
0.811657
0.0251148
0.816051
0.021351
0.820214
0.0176518
0.823998
0.0140776
0.827058
0.0106961
0.829033
0.00770286
0.829837
0.00530547
0.829811
0.00357156
0.829297
0.00243429
0.828315
0.00160429
0.826915
0.000948403
0.825226
0.000479763
0.823345
0.000182444
0.821347
2.40186e-05
0.819305
-3.61383e-05
0.817277
-4.65354e-05
0.815282
-4.66221e-05
-3.16615e-05
0.004267
0.0242213
0.00771802
0.0276548
0.0111034
0.0264041
0.0147279
0.0256235
0.0184275
0.0255894
0.0220818
0.0256542
0.0256561
0.0256561
0.0291534
0.0256714
0.0325777
0.0258284
0.0359291
0.0260522
0.0392014
0.0262929
0.0423907
0.0265641
0.045492
0.0268718
0.0484965
0.027232
0.0513906
0.027658
0.0541868
0.0280533
0.0568561
0.028564
0.0593891
0.0291183
0.0617827
0.0297112
0.0640527
0.0303359
0.0662366
0.0309709
0.0683861
0.0316477
0.0705485
0.0323858
0.0727634
0.0331455
0.0750592
0.0339198
0.077451
0.0347228
0.0799522
0.0355054
0.0825771
0.0362699
0.0853363
0.0370481
0.0882505
0.0377411
0.0913226
0.0385676
0.0945687
0.0392868
0.0979837
0.0401002
0.101568
0.0408442
0.105307
0.0415863
0.109199
0.042391
0.113241
0.0432175
0.117429
0.0440368
0.121762
0.0448405
0.12624
0.0456354
0.130854
0.0463816
0.135589
0.0470704
0.140428
0.0476918
0.145353
0.0482617
0.150347
0.0487898
0.155392
0.0492976
0.160469
0.0497985
0.165554
0.0502964
0.170618
0.0507916
0.175625
0.0512851
0.180536
0.0517917
0.18531
0.0523251
0.1899
0.0528867
0.194251
0.0534566
0.198301
0.054021
0.201987
0.0545863
0.205255
0.0551713
0.208083
0.0557889
0.210473
0.0564424
0.212377
0.0571175
0.21363
0.0577842
0.214094
0.0584203
0.214055
0.059
0.213708
0.0595186
0.213076
0.0600257
0.212182
0.0605063
0.211068
0.0609867
0.209795
0.0614807
0.208419
0.0620273
0.207005
0.0626006
0.205603
0.0632234
0.204265
0.0638449
0.203015
0.0644498
0.201863
0.0649874
0.200814
0.0655295
0.199913
0.0660427
0.19925
0.066524
0.199022
0.0669775
0.199088
0.0673533
0.199397
0.0677232
0.199966
0.0679786
0.200795
0.0683953
0.20211
0.0688836
0.204206
0.0697149
0.2072
0.0705212
0.211113
0.0711378
0.215913
0.0718595
0.221694
0.0726387
0.228575
0.0735824
0.23661
0.0745054
0.245813
0.0754783
0.256179
0.0765608
0.26768
0.0775959
0.280307
0.0785771
0.294056
0.0796901
0.308941
0.0807583
0.3249
0.0817852
0.34196
0.0829718
0.360175
0.0840371
0.379477
0.0852409
0.399934
0.0864631
0.421538
0.0875276
0.444293
0.0888067
0.468225
0.0899143
0.493445
0.0913044
0.520004
0.0924097
0.547809
0.0935789
0.576995
0.0950131
0.607683
0.0964558
0.639854
0.0978723
0.673522
0.099366
0.70888
0.100997
0.746101
0.102753
0.785393
0.104814
0.827023
0.106806
0.871122
0.108951
0.918142
0.111432
0.968466
0.113782
1.02259
0.116649
1.08147
0.119793
1.14597
0.123166
1.21744
0.127333
1.29801
0.13185
1.39003
0.137327
1.49712
0.143626
1.62465
0.150546
1.78095
0.158984
1.98326
0.170161
2.27292
0.185312
2.57927
0.207437
2.61422
0.203678
0.951634
0.135035
0.316093
0.0633122
0.306927
0.0578113
0.325567
0.0573058
0.355041
0.0568215
0.393255
0.0564403
0.447126
0.0561475
0.517617
0.0558725
0.597543
0.0555869
0.671734
0.0562573
0.72596
0.0554062
0.756141
0.0509059
0.771465
0.0468366
0.781588
0.0440986
0.789255
0.0407506
0.795199
0.037062
0.800245
0.0331889
0.804925
0.0291983
0.809467
0.0251904
0.813908
0.0212713
0.818149
0.0174686
0.821949
0.0138076
0.824981
0.0104172
0.826953
0.00748696
0.827701
0.00514542
0.827647
0.00346067
0.827109
0.00236459
0.826098
0.00155716
0.824717
0.000917268
0.823078
0.000460046
0.821251
0.000171429
0.819303
1.84133e-05
0.817303
-3.89262e-05
0.815309
-4.86174e-05
-4.75872e-05
0.0042709
0.0271544
0.00769225
0.0314379
0.0110846
0.0301852
0.0146745
0.0291958
0.0183745
0.0290361
0.0220525
0.02911
0.0256714
0.0291534
0.0292164
0.0292164
0.0326885
0.0294097
0.0360913
0.0296573
0.0394178
0.0299257
0.0426617
0.0302326
0.0458159
0.0305867
0.0488708
0.0310018
0.0518179
0.0314877
0.0546577
0.0319464
0.0573622
0.0325464
0.0599255
0.0331707
0.062343
0.033846
0.064633
0.0345536
0.0668335
0.0352819
0.0689947
0.0360557
0.0711645
0.0368952
0.0733811
0.0377577
0.0756722
0.038635
0.0780534
0.0395465
0.0805384
0.040443
0.0831434
0.0413262
0.0858809
0.0422334
0.0887728
0.0430556
0.0918278
0.0440157
0.0950601
0.0448606
0.098465
0.0458007
0.102039
0.0466652
0.105768
0.0475299
0.109651
0.0484443
0.113686
0.0493716
0.117862
0.0502854
0.122181
0.0511756
0.126638
0.0520532
0.131228
0.0528859
0.135937
0.0536645
0.140755
0.054376
0.145668
0.0550367
0.150659
0.055651
0.155709
0.056241
0.160795
0.0568192
0.165891
0.0573927
0.170964
0.0579655
0.175979
0.0585422
0.180894
0.0591371
0.18567
0.0597606
0.190259
0.0604152
0.194607
0.0610842
0.198651
0.0617556
0.20233
0.0624298
0.205598
0.0631186
0.208437
0.0638276
0.210847
0.064557
0.212775
0.0652959
0.214058
0.0660228
0.214557
0.0667219
0.214536
0.0673671
0.214198
0.0679549
0.213578
0.0685288
0.212709
0.0690686
0.211632
0.0696019
0.210406
0.0701359
0.209084
0.0707249
0.207721
0.0713445
0.206366
0.0720338
0.205071
0.0727353
0.20386
0.0734454
0.202754
0.0740883
0.201769
0.0747223
0.200939
0.0752791
0.200331
0.0758009
0.200072
0.0763036
0.200099
0.0767745
0.200388
0.0772515
0.200962
0.077643
0.201896
0.0782142
0.20335
0.0788021
0.205521
0.0796371
0.208526
0.080446
0.212402
0.081146
0.217178
0.0820484
0.22296
0.0829883
0.229837
0.0840639
0.237839
0.0851126
0.246989
0.0861988
0.257287
0.0874012
0.268719
0.0885809
0.281293
0.0897094
0.295006
0.0909744
0.309871
0.0921777
0.32582
0.093405
0.342879
0.094775
0.361089
0.0959867
0.380393
0.0974071
0.400849
0.0987952
0.422442
0.100045
0.445183
0.101537
0.469109
0.102876
0.494339
0.104432
0.520876
0.105717
0.548689
0.107138
0.5779
0.108739
0.608571
0.110347
0.640733
0.111991
0.674435
0.11378
0.709852
0.115665
0.747152
0.117652
0.786506
0.119955
0.828168
0.122144
0.872345
0.124574
0.919462
0.127343
0.969933
0.130064
1.02435
0.13333
1.0835
0.1369
1.14839
0.140903
1.22046
0.145755
1.30158
0.150903
1.39428
0.156929
1.5021
0.164077
1.63072
0.172225
1.7888
0.182058
1.99474
0.194846
2.28922
0.212428
2.57847
0.237285
2.60471
0.230681
0.858449
0.146722
0.313249
0.0707643
0.305598
0.0656622
0.325259
0.0650276
0.354618
0.0644891
0.392941
0.0640392
0.447003
0.0637002
0.517491
0.0633051
0.596861
0.063065
0.669959
0.0637411
0.722906
0.0624691
0.751761
0.0572602
0.765877
0.0524943
0.775073
0.0493692
0.782211
0.0457093
0.787936
0.0417187
0.79296
0.0375723
0.797747
0.03335
0.802484
0.0291437
0.807193
0.025039
0.811795
0.021047
0.816127
0.017172
0.819946
0.0134963
0.822978
0.0101605
0.824922
0.00729119
0.825588
0.00499075
0.82549
0.00336092
0.824932
0.00230015
0.823921
0.00151183
0.822581
0.000886496
0.820991
0.000440714
0.819212
0.000160563
0.817303
1.29209e-05
0.815336
-4.16236e-05
-5.05614e-05
0.00423386
0.0300315
0.00769955
0.0350939
0.0111866
0.0337973
0.0147888
0.0326911
0.0184904
0.0324247
0.0221803
0.0325042
0.0258284
0.0325777
0.0294097
0.0326885
0.0329224
0.0329224
0.0363702
0.0332002
0.0397427
0.0335063
0.0430321
0.0338594
0.046232
0.0342686
0.0493327
0.034743
0.0523259
0.0352893
0.0552013
0.0358147
0.0579374
0.0365003
0.0605276
0.037194
0.0629682
0.0379474
0.0652812
0.0387374
0.0675001
0.039558
0.0696779
0.0404251
0.0718617
0.0413614
0.0740859
0.0423264
0.0763771
0.0433089
0.078751
0.0443318
0.0812235
0.0453458
0.0838126
0.0463502
0.0865329
0.0473877
0.089408
0.0483399
0.0924513
0.0494298
0.0956752
0.0503981
0.0990746
0.0514623
0.102643
0.0524473
0.106367
0.0534342
0.110246
0.0544577
0.114275
0.0554855
0.118444
0.0564988
0.122753
0.057477
0.127195
0.0584395
0.131767
0.059355
0.136458
0.0602277
0.141263
0.0610293
0.146168
0.061779
0.151159
0.062478
0.156212
0.0631508
0.161302
0.0638089
0.166401
0.0644625
0.171476
0.065118
0.176489
0.0657823
0.181403
0.0664683
0.186176
0.0671837
0.190764
0.0679321
0.195112
0.0686996
0.199159
0.0694766
0.202846
0.0702577
0.20613
0.0710482
0.208993
0.0718468
0.211433
0.0726517
0.213393
0.0734552
0.214711
0.074243
0.215254
0.075005
0.215264
0.0757157
0.214949
0.0763706
0.21436
0.077008
0.213533
0.0776034
0.212508
0.0781871
0.211341
0.0787581
0.210078
0.0793847
0.208769
0.080042
0.207457
0.080787
0.206192
0.0815581
0.204999
0.0823664
0.203903
0.0831153
0.202933
0.0838449
0.202122
0.0844726
0.201535
0.0850676
0.201263
0.0856461
0.201276
0.086208
0.201569
0.0867814
0.202174
0.0872923
0.20318
0.0879719
0.204707
0.0886433
0.206914
0.0895035
0.209924
0.0903402
0.213783
0.0911475
0.218562
0.0922002
0.224357
0.0932728
0.231239
0.094468
0.239232
0.0956429
0.248369
0.0968439
0.258642
0.0981801
0.270046
0.0995172
0.28259
0.100805
0.296271
0.102238
0.311098
0.103594
0.327011
0.105028
0.344034
0.106586
0.362201
0.10796
0.381475
0.109599
0.401909
0.111162
0.423492
0.112601
0.446229
0.114302
0.470155
0.115867
0.495378
0.117605
0.521878
0.119133
0.549692
0.1208
0.578915
0.12256
0.609567
0.124352
0.641741
0.126187
0.675506
0.128205
0.710997
0.130306
0.748399
0.13247
0.787865
0.135009
0.829632
0.137466
0.873977
0.140192
0.921255
0.143303
0.971898
0.146501
1.02662
0.150162
1.08609
0.154231
1.15138
0.158813
1.22398
0.164214
1.30563
0.170136
1.39899
0.176774
1.50774
0.184618
1.63761
0.193989
1.79786
0.205421
2.00695
0.219769
2.30933
0.239966
2.56982
0.267667
2.58076
0.256321
0.762847
0.155032
0.310491
0.0778709
0.30396
0.073322
0.32504
0.0725702
0.354098
0.0719818
0.392559
0.0714534
0.44685
0.0710316
0.517297
0.0704857
0.595987
0.0703396
0.667785
0.0709284
0.71921
0.0691014
0.746544
0.0631854
0.75946
0.0578417
0.76786
0.0543982
0.774597
0.0505098
0.780194
0.0463091
0.785257
0.041977
0.790195
0.0375916
0.795154
0.0332317
0.800129
0.0289673
0.805046
0.0248058
0.809787
0.0207486
0.814183
0.016852
0.818019
0.013214
0.821032
0.00993293
0.8229
0.00710077
0.823497
0.00484067
0.823362
0.00326429
0.822786
0.00223868
0.821803
0.00146674
0.820507
0.000855915
0.818961
0.00042234
0.817217
0.000150385
0.815339
7.83654e-06
-4.40572e-05
0.00409375
0.0329602
0.00765582
0.0385669
0.0112941
0.0371837
0.0149596
0.0360538
0.0186798
0.0357311
0.0223842
0.0358251
0.0260522
0.0359291
0.0296573
0.0360913
0.0332002
0.0363702
0.0366847
0.0366847
0.040099
0.0370367
0.0434354
0.0374409
0.0466869
0.0379071
0.0498365
0.038445
0.0528896
0.0390473
0.0558076
0.0396496
0.0585797
0.0404091
0.0612065
0.0411684
0.063682
0.0419963
0.0660187
0.0428742
0.0682578
0.0437843
0.0704537
0.0447436
0.0726503
0.0457768
0.0748791
0.0468452
0.0771652
0.0479347
0.0795274
0.0490692
0.0819845
0.0502001
0.0845557
0.0513273
0.0872569
0.0524969
0.0901133
0.0535805
0.0931421
0.0547979
0.0963532
0.0558894
0.0997417
0.0570771
0.103299
0.0581841
0.107012
0.0592937
0.110882
0.0604258
0.114902
0.0615554
0.119062
0.0626692
0.123359
0.0637384
0.127788
0.0647908
0.132346
0.0657877
0.137026
0.0667479
0.141823
0.0676383
0.146728
0.0684755
0.151723
0.069258
0.156785