/*--------------------------------*- C++ -*----------------------------------*\
  =========                 |
  \\      /  F ield         | OpenFOAM: The Open Source CFD Toolbox
   \\    /   O peration     | Website:  https://openfoam.org
    \\  /    A nd           | Version:  13
     \\/     M anipulation  |
\*---------------------------------------------------------------------------*/
FoamFile
{
    format      ascii;
    class       volScalarField;
    location    "0.0019";
    object      Qdot;
}
// * * * * * * * * * * * * * * * * * * * * * * * * * * * * * * * * * * * * * //

dimensions      [1 -1 -3 0 0 0 0];

internalField   nonuniform List<scalar> 
33334
(
-9.18885e-21
-9.27773e-21
-9.66307e-21
-1.06649e-20
-1.27632e-20
-1.66679e-20
-2.36229e-20
-3.59842e-20
-5.85186e-20
-1.01304e-19
-1.8681e-19
-3.66672e-19
-7.62653e-19
-1.66785e-18
-3.79765e-18
-8.90936e-18
-2.13454e-17
-5.18268e-17
-1.26628e-16
-3.09735e-16
-7.55282e-16
-1.83059e-15
-4.40205e-15
-1.04976e-14
-2.48465e-14
-5.84834e-14
-1.37251e-13
-3.21905e-13
-7.54604e-13
-1.76689e-12
-4.12263e-12
-9.54992e-12
-2.18598e-11
-4.92192e-11
-1.08561e-10
-2.33793e-10
-4.90331e-10
-9.99464e-10
-1.97665e-09
-3.78729e-09
-7.02063e-09
-1.25762e-08
-2.17496e-08
-3.62975e-08
-5.84563e-08
-9.08513e-08
-1.36317e-07
-1.97597e-07
-2.77027e-07
-3.76451e-07
-4.97619e-07
-6.42632e-07
-8.12297e-07
-9.98142e-07
-1.16903e-06
-1.28029e-06
-1.33079e-06
-1.353e-06
-1.34611e-06
-1.30254e-06
-1.22275e-06
-1.11548e-06
-9.96391e-07
-8.81718e-07
-7.80741e-07
-6.97328e-07
-6.3096e-07
-5.78973e-07
-5.38288e-07
-5.0628e-07
-4.81013e-07
-4.6112e-07
-4.45626e-07
-4.33783e-07
-4.2497e-07
-4.18645e-07
-4.14212e-07
-4.11692e-07
-4.10808e-07
-4.10478e-07
-4.12751e-07
-4.14797e-07
-4.18283e-07
-4.26525e-07
-4.40262e-07
-4.58709e-07
-4.82745e-07
-5.13465e-07
-5.52958e-07
-6.03575e-07
-6.68537e-07
-7.51746e-07
-8.58796e-07
-9.97632e-07
-1.17996e-06
-1.42212e-06
-1.74758e-06
-2.19052e-06
-2.80147e-06
-3.65933e-06
-4.88807e-06
-6.68786e-06
9.64973e-05
0.000129942
8.94547e-05
0.000340928
0.000594744
0.000807159
0.00159347
0.0025644
0.00494856
0.0090178
0.0185409
0.0389999
0.0874159
0.207284
0.525057
1.43471
4.27806
14.0873
51.822
215.932
1030.67
5720.89
38070.7
314031
3.29496e+06
4.78543e+07
1.06579e+09
3.95202e+10
3.39836e+11
2.55165e+09
5.32162e+06
2.35018e+06
1.3993e+06
587864
147668
19022.8
1153.2
37.8679
1.14312
0.070399
0.0144684
0.00836274
0.00814237
0.00852044
0.00949524
0.0107375
0.0120285
0.0130365
0.0136256
0.0138734
0.0139428
0.0138974
0.0137092
0.0134877
0.0131934
0.0129281
0.0127446
0.0125143
0.0122879
0.0120619
0.0118371
0.0117337
0.0115791
0.0113178
-9.27773e-21
-9.38465e-21
-9.76478e-21
-1.07704e-20
-1.28786e-20
-1.67967e-20
-2.37533e-20
-3.60803e-20
-5.85067e-20
-1.01098e-19
-1.86219e-19
-3.65233e-19
-7.5926e-19
-1.65979e-18
-3.77801e-18
-8.86016e-18
-2.12187e-17
-5.14942e-17
-1.25749e-16
-3.07401e-16
-7.49113e-16
-1.8144e-15
-4.35995e-15
-1.03895e-14
-2.45729e-14
-5.77976e-14
-1.35478e-13
-3.16898e-13
-7.40875e-13
-1.73087e-12
-4.03139e-12
-9.3269e-12
-2.13329e-11
-4.80197e-11
-1.05937e-10
-2.28278e-10
-4.79223e-10
-9.78029e-10
-1.937e-09
-3.71697e-09
-6.90103e-09
-1.23813e-08
-2.14441e-08
-3.58313e-08
-5.7746e-08
-8.98e-08
-1.34822e-07
-1.95559e-07
-2.74355e-07
-3.73065e-07
-4.93433e-07
-6.37531e-07
-8.06216e-07
-9.91517e-07
-1.1639e-06
-1.28006e-06
-1.33429e-06
-1.35788e-06
-1.35319e-06
-1.31202e-06
-1.2341e-06
-1.12756e-06
-1.00789e-06
-8.91792e-07
-7.8909e-07
-7.04004e-07
-6.36202e-07
-5.83059e-07
-5.41462e-07
-5.08751e-07
-4.82918e-07
-4.62555e-07
-4.46663e-07
-4.34494e-07
-4.2543e-07
-4.18826e-07
-4.14068e-07
-4.11196e-07
-4.09956e-07
-4.09446e-07
-4.09583e-07
-4.13748e-07
-4.19253e-07
-4.2757e-07
-4.40958e-07
-4.58876e-07
-4.82426e-07
-5.12461e-07
-5.50947e-07
-6.00376e-07
-6.63563e-07
-7.44442e-07
-8.48621e-07
-9.84008e-07
-1.16165e-06
-1.39763e-06
-1.71506e-06
-2.14683e-06
-2.7431e-06
-3.57977e-06
-4.77633e-06
-6.52854e-06
9.65866e-05
0.000130122
8.9896e-05
0.000341402
0.000482107
0.000808911
0.0015964
0.00261085
0.00439249
0.00876089
0.0174309
0.0366653
0.0819881
0.193791
0.490085
1.33586
3.96891
12.992
47.3535
195.406
927.48
5132.72
34314
286122
3.05772e+06
4.52413e+07
1.01783e+09
3.66634e+10
3.4623e+11
3.1912e+09
5.80841e+06
2.35635e+06
1.40532e+06
592512
149539
19391.9
1186.26
39.3645
1.1995
0.0739121
0.0152469
0.00885384
0.00847744
0.00908924
0.0100084
0.0111594
0.0121139
0.0129091
0.0134406
0.0137043
0.0137984
0.0137686
0.0136126
0.0134311
0.0131747
0.0129221
0.0127422
0.012513
0.0122879
0.0120624
0.0118374
0.0117335
0.0115785
0.011317
-9.66307e-21
-9.76478e-21
-1.0174e-20
-1.12368e-20
-1.34335e-20
-1.74961e-20
-2.46611e-20
-3.72652e-20
-6.0084e-20
-1.03404e-19
-1.89995e-19
-3.72083e-19
-7.7278e-19
-1.68822e-18
-3.84033e-18
-9.00032e-18
-2.15369e-17
-5.22167e-17
-1.27374e-16
-3.11003e-16
-7.56926e-16
-1.83081e-15
-4.39286e-15
-1.04515e-14
-2.46785e-14
-5.79363e-14
-1.35483e-13
-3.1604e-13
-7.37048e-13
-1.71846e-12
-3.99649e-12
-9.2365e-12
-2.11141e-11
-4.75205e-11
-1.04863e-10
-2.26109e-10
-4.75116e-10
-9.7076e-10
-1.92505e-09
-3.6989e-09
-6.8765e-09
-1.23529e-08
-2.14205e-08
-3.58298e-08
-5.7796e-08
-8.99552e-08
-1.35175e-07
-1.96254e-07
-2.75594e-07
-3.75093e-07
-4.96492e-07
-6.41823e-07
-8.1198e-07
-9.99564e-07
-1.177e-06
-1.3025e-06
-1.36373e-06
-1.38938e-06
-1.3872e-06
-1.34797e-06
-1.27043e-06
-1.16201e-06
-1.0386e-06
-9.17747e-07
-8.10337e-07
-7.2114e-07
-6.49987e-07
-5.94205e-07
-5.50553e-07
-5.16212e-07
-4.8906e-07
-4.67606e-07
-4.50774e-07
-4.37815e-07
-4.28072e-07
-4.20936e-07
-4.15954e-07
-4.12617e-07
-4.11216e-07
-4.11066e-07
-4.11749e-07
-4.14672e-07
-4.21375e-07
-4.2988e-07
-4.41479e-07
-4.5843e-07
-4.81371e-07
-5.10944e-07
-5.4907e-07
-5.98112e-07
-6.60841e-07
-7.41004e-07
-8.43942e-07
-9.77317e-07
-1.15229e-06
-1.38498e-06
-1.69834e-06
-2.12515e-06
-2.71443e-06
-3.54123e-06
-4.72358e-06
-6.45227e-06
9.67403e-05
0.000130351
9.02323e-05
0.000342042
0.000483156
0.000695138
0.00148213
0.00261766
0.00440629
0.00833306
0.0167744
0.0352086
0.0785651
0.185736
0.470637
1.28657
3.83688
12.6313
46.3333
192.639
925.908
5189.8
34934.8
294723
3.19228e+06
4.76424e+07
1.07905e+09
3.89234e+10
3.36362e+11
2.73987e+09
5.50772e+06
2.35302e+06
1.404e+06
591198
148966
19282
1176.53
38.9017
1.17695
0.0719988
0.0146564
0.00843809
0.00825909
0.00866612
0.00956024
0.0107364
0.011765
0.0124633
0.0130115
0.0134942
0.0135958
0.0135922
0.0135389
0.0133359
0.0130535
0.0129512
0.0127318
0.0125108
0.0122877
0.0120631
0.0118378
0.0117333
0.0115777
0.0113157
-1.06649e-20
-1.07704e-20
-1.12368e-20
-1.2419e-20
-1.48609e-20
-1.9355e-20
-2.72374e-20
-4.10163e-20
-6.58071e-20
-1.12606e-19
-2.05793e-19
-4.01151e-19
-8.29781e-19
-1.80608e-18
-4.09408e-18
-9.56254e-18
-2.2804e-17
-5.50959e-17
-1.33918e-16
-3.25791e-16
-7.89968e-16
-1.9035e-15
-4.54967e-15
-1.07813e-14
-2.53479e-14
-5.92302e-14
-1.37904e-13
-3.2089e-13
-7.47079e-13
-1.73971e-12
-4.04271e-12
-9.33966e-12
-2.13496e-11
-4.80646e-11
-1.0612e-10
-2.28976e-10
-4.815e-10
-9.84533e-10
-1.95371e-09
-3.75635e-09
-6.98759e-09
-1.25609e-08
-2.18001e-08
-3.65118e-08
-5.9013e-08
-9.20545e-08
-1.38652e-07
-2.01787e-07
-2.84053e-07
-3.875e-07
-5.13946e-07
-6.65478e-07
-8.43252e-07
-1.04063e-06
-1.23065e-06
-1.3689e-06
-1.43812e-06
-1.46631e-06
-1.4655e-06
-1.42526e-06
-1.34349e-06
-1.22776e-06
-1.09515e-06
-9.6475e-07
-8.48774e-07
-7.52445e-07
-6.75575e-07
-6.15279e-07
-5.68055e-07
-5.30849e-07
-5.01356e-07
-4.7795e-07
-4.5947e-07
-4.45102e-07
-4.34121e-07
-4.25888e-07
-4.19811e-07
-4.15654e-07
-4.13244e-07
-4.12214e-07
-4.13032e-07
-4.16196e-07
-4.22529e-07
-4.30906e-07
-4.42811e-07
-4.60196e-07
-4.83398e-07
-5.13324e-07
-5.51669e-07
-6.00702e-07
-6.63317e-07
-7.43332e-07
-8.46051e-07
-9.79155e-07
-1.15401e-06
-1.38705e-06
-1.70156e-06
-2.13092e-06
-2.72473e-06
-3.55878e-06
-4.75251e-06
-6.4979e-06
9.67182e-05
0.000130309
9.01258e-05
0.000341977
0.000483026
0.000694915
0.00148199
0.0026177
0.00440689
0.00833545
0.0167809
0.0352221
0.0788937
0.186457
0.475364
1.30499
3.91313
12.9587
47.8203
199.664
964.052
5444.12
36757.1
310523
3.37575e+06
5.04842e+07
1.1527e+09
4.23088e+10
3.30846e+11
2.26686e+09
5.17339e+06
2.32739e+06
1.38507e+06
580553
145502
18711.7
1133.71
37.2725
1.1255
0.0692382
0.0142973
0.00830258
0.008109
0.00854624
0.00932802
0.0102805
0.0111476
0.0118946
0.0126013
0.0130009
0.013338
0.0134017
0.0133492
0.0132026
0.0130189
0.012894
0.0127042
0.012502
0.0122871
0.0120644
0.0118393
0.0117342
0.0115777
0.0113152
-1.27632e-20
-1.28786e-20
-1.34335e-20
-1.48609e-20
-1.77952e-20
-2.31837e-20
-3.26098e-20
-4.90289e-20
-7.84112e-20
-1.33481e-19
-2.42343e-19
-4.6898e-19
-9.62831e-19
-2.08001e-18
-4.68031e-18
-1.08541e-17
-2.57049e-17
-6.16826e-17
-1.48935e-16
-3.5997e-16
-8.6729e-16
-2.0768e-15
-4.93345e-15
-1.16188e-14
-2.71458e-14
-6.30424e-14
-1.45987e-13
-3.38183e-13
-7.84751e-13
-1.82338e-12
-4.23178e-12
-9.77239e-12
-2.23459e-11
-5.03515e-11
-1.11308e-10
-2.40513e-10
-5.06486e-10
-1.03701e-09
-2.06035e-09
-3.96603e-09
-7.38704e-09
-1.32999e-08
-2.31306e-08
-3.88427e-08
-6.2973e-08
-9.85677e-08
-1.49005e-07
-2.17668e-07
-3.07547e-07
-4.21032e-07
-5.60232e-07
-7.27577e-07
-9.24603e-07
-1.14424e-06
-1.35602e-06
-1.50922e-06
-1.5853e-06
-1.61595e-06
-1.61374e-06
-1.56675e-06
-1.47268e-06
-1.3407e-06
-1.19049e-06
-1.04344e-06
-9.13228e-07
-8.05403e-07
-7.19478e-07
-6.52074e-07
-5.99208e-07
-5.5745e-07
-5.24205e-07
-4.97642e-07
-4.76452e-07
-4.59698e-07
-4.46577e-07
-4.3645e-07
-4.28639e-07
-4.23116e-07
-4.19714e-07
-4.18366e-07
-4.19355e-07
-4.22726e-07
-4.28721e-07
-4.37378e-07
-4.49996e-07
-4.68061e-07
-4.91936e-07
-5.2265e-07
-5.61786e-07
-6.11554e-07
-6.74895e-07
-7.55784e-07
-8.59832e-07
-9.95191e-07
-1.17352e-06
-1.41178e-06
-1.73418e-06
-2.1759e-06
-2.78906e-06
-3.65219e-06
-4.88916e-06
-6.69828e-06
9.64313e-05
0.000129882
8.94839e-05
0.00034101
0.000595064
0.000808146
0.00159587
0.0024511
0.00439566
0.00864804
0.017039
0.036135
0.080771
0.192824
0.492602
1.36295
4.11308
13.7092
50.9608
213.773
1034.85
5877.11
39887.5
337859
3.71368e+06
5.59046e+07
1.2852e+09
4.749e+10
3.16929e+11
1.76223e+09
4.83816e+06
2.30187e+06
1.36483e+06
568489
141280
17973.5
1075.45
34.9845
1.05485
0.0655289
0.0136804
0.00808172
0.00789807
0.00828638
0.00896465
0.00980359
0.0106562
0.0114314
0.0119713
0.0125482
0.012886
0.0130128
0.0130356
0.0129645
0.0129487
0.0128042
0.0126516
0.0124779
0.0122804
0.0120647
0.0118413
0.0117363
0.0115791
0.0113158
-1.66679e-20
-1.67967e-20
-1.74961e-20
-1.9355e-20
-2.31837e-20
-3.02044e-20
-4.24543e-20
-6.37289e-20
-1.01622e-19
-1.72149e-19
-3.10376e-19
-5.95466e-19
-1.21071e-18
-2.5891e-18
-5.76675e-18
-1.32422e-17
-3.10635e-17
-7.38591e-17
-1.76777e-16
-4.23673e-16
-1.01257e-15
-2.40603e-15
-5.67329e-15
-1.3266e-14
-3.07851e-14
-7.10555e-14
-1.63657e-13
-3.77331e-13
-8.7236e-13
-2.0218e-12
-4.68556e-12
-1.08152e-11
-2.4738e-11
-5.57894e-11
-1.23476e-10
-2.67158e-10
-5.63341e-10
-1.15491e-09
-2.29765e-09
-4.42943e-09
-8.26536e-09
-1.49163e-08
-2.60179e-08
-4.38431e-08
-7.13581e-08
-1.12175e-07
-1.70347e-07
-2.49982e-07
-3.54757e-07
-4.87686e-07
-6.51525e-07
-8.4941e-07
-1.08305e-06
-1.34269e-06
-1.589e-06
-1.76044e-06
-1.84207e-06
-1.87535e-06
-1.86788e-06
-1.80596e-06
-1.68818e-06
-1.52722e-06
-1.34711e-06
-1.17272e-06
-1.01961e-06
-8.93537e-07
-7.93373e-07
-7.14855e-07
-6.53203e-07
-6.0438e-07
-5.65343e-07
-5.33944e-07
-5.08637e-07
-4.88304e-07
-4.72037e-07
-4.59156e-07
-4.49022e-07
-4.41621e-07
-4.37e-07
-4.35e-07
-4.35597e-07
-4.38767e-07
-4.44775e-07
-4.53952e-07
-4.67519e-07
-4.86912e-07
-5.12513e-07
-5.45392e-07
-5.87077e-07
-6.39752e-07
-7.06498e-07
-7.91612e-07
-9.01197e-07
-1.04405e-06
-1.23273e-06
-1.48541e-06
-1.82805e-06
-2.29835e-06
-2.95182e-06
-3.87226e-06
-5.19161e-06
-7.1199e-06
9.5833e-05
0.000129024
8.82317e-05
0.000339136
0.000592181
0.00107336
0.0016276
0.00243852
0.00494444
0.00898116
0.0178062
0.0378692
0.0853333
0.203428
0.521585
1.44781
4.38636
14.6705
54.7807
230.8
1119.06
6384.66
43661.1
370675
4.10093e+06
6.26844e+07
1.45714e+09
5.42756e+10
2.97104e+11
1.31562e+09
4.48741e+06
2.26719e+06
1.3378e+06
552289
135527
16965.6
997.532
32.0396
0.966975
0.0610394
0.0130393
0.00781268
0.00749418
0.00793657
0.00846395
0.0092158
0.0100072
0.0107486
0.0114585
0.0118888
0.0123681
0.0126848
0.0128301
0.0128431
0.0127823
0.0126796
0.0125665
0.0124291
0.0123175
0.0120591
0.0118421
0.0117387
0.0115817
0.0113176
-2.36229e-20
-2.37533e-20
-2.46611e-20
-2.72374e-20
-3.26098e-20
-4.24543e-20
-5.95493e-20
-8.90843e-20
-1.4139e-19
-2.38061e-19
-4.2589e-19
-8.09456e-19
-1.62848e-18
-3.44366e-18
-7.58324e-18
-1.72208e-17
-3.99664e-17
-9.40568e-17
-2.22945e-16
-5.29441e-16
-1.25447e-15
-2.95668e-15
-6.91864e-15
-1.60641e-14
-3.7042e-14
-8.50223e-14
-1.94878e-13
-4.47425e-13
-1.03081e-12
-2.38277e-12
-5.51243e-12
-1.27113e-11
-2.90655e-11
-6.55584e-11
-1.45167e-10
-3.14313e-10
-6.63369e-10
-1.3615e-09
-2.7125e-09
-5.23875e-09
-9.7983e-09
-1.77333e-08
-3.10361e-08
-5.25012e-08
-8.58156e-08
-1.3552e-07
-2.06757e-07
-3.04775e-07
-4.34318e-07
-5.99385e-07
-8.0379e-07
-1.05173e-06
-1.3446e-06
-1.66723e-06
-1.96547e-06
-2.16135e-06
-2.24871e-06
-2.2855e-06
-2.26822e-06
-2.18113e-06
-2.02529e-06
-1.81894e-06
-1.5925e-06
-1.37604e-06
-1.18772e-06
-1.03363e-06
-9.11645e-07
-8.16154e-07
-7.41161e-07
-6.81693e-07
-6.34028e-07
-5.9553e-07
-5.64303e-07
-5.38959e-07
-5.18432e-07
-5.0193e-07
-4.88816e-07
-4.79006e-07
-4.72477e-07
-4.68969e-07
-4.68319e-07
-4.70724e-07
-4.76517e-07
-4.85991e-07
-5.00277e-07
-5.214e-07
-5.49696e-07
-5.86121e-07
-6.32282e-07
-6.9047e-07
-7.63985e-07
-8.57505e-07
-9.77736e-07
-1.13429e-06
-1.34085e-06
-1.61715e-06
-1.99125e-06
-2.50382e-06
-3.21468e-06
-4.21407e-06
-5.64371e-06
9.63492e-05
9.50075e-05
0.000235547
8.65738e-05
0.000336729
0.000588563
0.000952067
0.00157934
0.00298335
0.00503947
0.00963687
0.0193164
0.0404253
0.0908173
0.217063
0.557314
1.5503
4.71262
15.8114
59.2644
251.258
1224.1
7021.72
48571.2
415332
4.63139e+06
7.22809e+07
1.71072e+09
6.35913e+10
2.70173e+11
9.19088e+08
4.14496e+06
2.22766e+06
1.3062e+06
533245
128811
15805.7
910.022
28.8042
0.87111
0.0561881
0.0122468
0.00736059
0.00713003
0.00740071
0.00796718
0.00859308
0.00939407
0.010106
0.0107454
0.0113025
0.0117683
0.0121209
0.0123984
0.0125364
0.0125581
0.012521
0.0124464
0.0123484
0.0122717
0.0120389
0.0118372
0.0117397
0.0115843
0.0113204
-3.59842e-20
-3.60803e-20
-3.72652e-20
-4.10163e-20
-4.90289e-20
-6.37289e-20
-8.90843e-20
-1.3253e-19
-2.08846e-19
-3.48704e-19
-6.17922e-19
-1.16204e-18
-2.31114e-18
-4.82899e-18
-1.05058e-17
-2.35774e-17
-5.41034e-17
-1.25962e-16
-2.95572e-16
-6.95337e-16
-1.63318e-15
-3.81811e-15
-8.8677e-15
-2.04499e-14
-4.68704e-14
-1.07009e-13
-2.44123e-13
-5.58164e-13
-1.28128e-12
-2.9527e-12
-6.81435e-12
-1.56849e-11
-3.58213e-11
-8.07402e-11
-1.78746e-10
-3.87105e-10
-8.17558e-10
-1.67991e-09
-3.3525e-09
-6.48897e-09
-1.21693e-08
-2.20936e-08
-3.88045e-08
-6.58975e-08
-1.08158e-07
-1.71526e-07
-2.62766e-07
-3.88793e-07
-5.55884e-07
-7.69429e-07
-1.03473e-06
-1.35736e-06
-1.73774e-06
-2.15198e-06
-2.52462e-06
-2.75538e-06
-2.8512e-06
-2.89307e-06
-2.86035e-06
-2.73574e-06
-2.52455e-06
-2.25237e-06
-1.95843e-06
-1.68031e-06
-1.44016e-06
-1.24466e-06
-1.09037e-06
-9.6979e-07
-8.75152e-07
-8.00112e-07
-7.39941e-07
-6.9129e-07
-6.51735e-07
-6.19492e-07
-5.9322e-07
-5.71917e-07
-5.54834e-07
-5.41681e-07
-5.32255e-07
-5.26224e-07
-5.23425e-07
-5.24248e-07
-5.29197e-07
-5.38543e-07
-5.53177e-07
-5.75757e-07
-6.07114e-07
-6.47894e-07
-6.99774e-07
-7.65281e-07
-8.48027e-07
-9.53081e-07
-1.08779e-06
-1.26267e-06
-1.49268e-06
-1.79931e-06
-2.21298e-06
-2.77776e-06
-3.55829e-06
-4.65191e-06
-6.21101e-06
9.56179e-05
-1.18438e-05
0.000234212
0.000194242
0.000222414
0.000546751
0.0010615
0.00184419
0.00296639
0.00529478
0.0101619
0.0204743
0.0434267
0.097418
0.232939
0.600013
1.67303
5.10408
17.2006
64.7713
276.395
1357.44
7835.1
54677.2
474383
5.34025e+06
8.45919e+07
2.06599e+09
7.5789e+10
2.39653e+11
5.86844e+08
3.82348e+06
2.18159e+06
1.26875e+06
510998
121155
14522.7
816.075
25.4087
0.77105
0.05096
0.0114768
0.0070232
0.00671915
0.00694088
0.0073855
0.00807045
0.00877348
0.00945988
0.0100854
0.0106413
0.0111275
0.0116533
0.0118528
0.012123
0.0123299
0.0123103
0.012291
0.0122915
0.0121362
0.0119957
0.0118182
0.0117352
0.0115854
0.0113232
-5.85186e-20
-5.85067e-20
-6.0084e-20
-6.58071e-20
-7.84112e-20
-1.01622e-19
-1.4139e-19
-2.08846e-19
-3.26078e-19
-5.38642e-19
-9.43333e-19
-1.75182e-18
-3.43859e-18
-7.0889e-18
-1.5217e-17
-3.37106e-17
-7.64116e-17
-1.75843e-16
-4.08187e-16
-9.50721e-16
-2.21254e-15
-5.12905e-15
-1.18206e-14
-2.70676e-14
-6.16421e-14
-1.3992e-13
-3.17524e-13
-7.22514e-13
-1.65136e-12
-3.79094e-12
-8.72038e-12
-2.00196e-11
-4.5633e-11
-1.02728e-10
-2.273e-10
-4.92316e-10
-1.04056e-09
-2.14113e-09
-4.28143e-09
-8.30768e-09
-1.56254e-08
-2.84598e-08
-5.0159e-08
-8.54866e-08
-1.40821e-07
-2.24112e-07
-3.44433e-07
-5.11038e-07
-7.32293e-07
-1.01542e-06
-1.36764e-06
-1.79628e-06
-2.29986e-06
-2.84136e-06
-3.31657e-06
-3.59779e-06
-3.70841e-06
-3.75642e-06
-3.70054e-06
-3.52333e-06
-3.2354e-06
-2.87146e-06
-2.48269e-06
-2.11734e-06
-1.80334e-06
-1.54851e-06
-1.34779e-06
-1.19111e-06
-1.06825e-06
-9.70919e-07
-8.92955e-07
-8.29975e-07
-7.7878e-07
-7.36989e-07
-7.02816e-07
-6.74908e-07
-6.5228e-07
-6.34331e-07
-6.20684e-07
-6.10975e-07
-6.05106e-07
-6.03585e-07
-6.07007e-07
-6.15926e-07
-6.30871e-07
-6.54359e-07
-6.88606e-07
-7.33944e-07
-7.92005e-07
-8.65638e-07
-9.58894e-07
-1.0773e-06
-1.22893e-06
-1.42535e-06
-1.68299e-06
-2.0254e-06
-2.48581e-06
-3.1122e-06
-3.97473e-06
-5.17881e-06
-6.88896e-06
9.47571e-05
0.000128041
8.91371e-05
0.000338096
0.000479505
0.00042842
0.00105435
0.00183272
0.00306716
0.00562766
0.0112202
0.0220822
0.0466501
0.105122
0.252244
0.651113
1.82252
5.58551
18.9239
71.718
308.255
1527.32
8906.13
62695.3
551605
6.33571e+06
1.01595e+08
2.55764e+09
9.25958e+10
2.02961e+11
3.52155e+08
3.53661e+06
2.12766e+06
1.22592e+06
486042
112785
13165.4
719.751
22.0091
0.671026
0.0456312
0.0106364
0.00658786
0.00628261
0.0065216
0.00685636
0.007435
0.00815891
0.00882006
0.00942955
0.00997846
0.0105294
0.0109675
0.0114043
0.011714
0.0118766
0.012039
0.0120918
0.0120798
0.0120249
0.0119231
0.0118361
0.0117173
0.0115813
0.0113243
-1.01304e-19
-1.01098e-19
-1.03404e-19
-1.12606e-19
-1.33481e-19
-1.72149e-19
-2.38061e-19
-3.48704e-19
-5.38642e-19
-8.78614e-19
-1.51729e-18
-2.77577e-18
-5.36452e-18
-1.08874e-17
-2.30121e-17
-5.02263e-17
-1.12267e-16
-2.54981e-16
-5.84734e-16
-1.34673e-15
-3.10219e-15
-7.12409e-15
-1.6277e-14
-3.69767e-14
-8.35917e-14
-1.88455e-13
-4.24965e-13
-9.61348e-13
-2.18551e-12
-4.99338e-12
-1.14398e-11
-2.6177e-11
-5.95252e-11
-1.33799e-10
-2.95855e-10
-6.40913e-10
-1.35589e-09
-2.79439e-09
-5.59969e-09
-1.08937e-08
-2.05485e-08
-3.75406e-08
-6.63685e-08
-1.13459e-07
-1.87448e-07
-2.99116e-07
-4.60753e-07
-6.84821e-07
-9.82466e-07
-1.36323e-06
-1.83674e-06
-2.41245e-06
-3.08589e-06
-3.8008e-06
-4.41399e-06
-4.76703e-06
-4.90264e-06
-4.95537e-06
-4.86602e-06
-4.61701e-06
-4.22417e-06
-3.73405e-06
-3.21436e-06
-2.72794e-06
-2.31088e-06
-1.9728e-06
-1.70665e-06
-1.49901e-06
-1.33631e-06
-1.20757e-06
-1.1046e-06
-1.02155e-06
-9.54116e-07
-8.99045e-07
-8.53874e-07
-8.16735e-07
-7.86272e-07
-7.61521e-07
-7.41944e-07
-7.27158e-07
-7.17129e-07
-7.12451e-07
-7.13755e-07
-7.22045e-07
-7.37449e-07
-7.61683e-07
-7.98534e-07
-8.4855e-07
-9.13108e-07
-9.95409e-07
-1.10011e-06
-1.23337e-06
-1.40415e-06
-1.6253e-06
-1.91506e-06
-2.29952e-06
-2.81528e-06
-3.51499e-06
-4.47542e-06
-5.81164e-06
9.47499e-05
9.37236e-05
0.000126661
8.72236e-05
0.000335496
0.000475769
0.000687927
0.0010458
0.00205502
0.00320427
0.00628105
0.0118508
0.0237531
0.0506938
0.11409
0.274801
0.712811
2.00538
6.18142
21.0805
80.4815
349.014
1745.8
10291.8
73403.5
653339
7.6515e+06
1.25993e+08
3.24806e+09
1.14898e+11
1.63176e+11
2.01081e+08
3.28431e+06
2.0679e+06
1.17791e+06
458782
103911
11774.6
624.229
18.7201
0.574273
0.0403262
0.00975665
0.00607282
0.00583859
0.00604682
0.00639641
0.00687462
0.00750418
0.00819491
0.0087851
0.00932268
0.00981365
0.0103228
0.0107359
0.0111082
0.011545
0.01178
0.0118333
0.011889
0.0118762
0.0118165
0.0117669
0.011737
0.0115642
0.0113205
-1.8681e-19
-1.86219e-19
-1.89995e-19
-2.05793e-19
-2.42343e-19
-3.10376e-19
-4.2589e-19
-6.17922e-19
-9.43333e-19
-1.51729e-18
-2.5788e-18
-4.63669e-18
-8.80019e-18
-1.75355e-17
-3.64039e-17
-7.80941e-17
-1.71734e-16
-3.84151e-16
-8.68631e-16
-1.97492e-15
-4.49546e-15
-1.02113e-14
-2.30963e-14
-5.19801e-14
-1.16493e-13
-2.60513e-13
-5.83035e-13
-1.30974e-12
-2.95859e-12
-6.72155e-12
-1.53254e-11
-3.49334e-11
-7.92137e-11
-1.77736e-10
-3.92697e-10
-8.50792e-10
-1.80151e-09
-3.71852e-09
-7.46679e-09
-1.45606e-08
-2.75356e-08
-5.04373e-08
-8.93962e-08
-1.53191e-07
-2.53634e-07
-4.0547e-07
-6.25441e-07
-9.30374e-07
-1.33508e-06
-1.85199e-06
-2.49366e-06
-3.27215e-06
-4.17843e-06
-5.12899e-06
7.33213e-05
7.32806e-05
7.34892e-05
7.37847e-05
7.42397e-05
7.48736e-05
-5.58535e-06
-4.922e-06
-4.22247e-06
-3.56936e-06
-3.00979e-06
-2.55612e-06
-2.19883e-06
-1.92004e-06
-1.70168e-06
-1.52904e-06
-1.39116e-06
-1.28013e-06
-1.19008e-06
-1.11654e-06
-1.05608e-06
-1.00609e-06
-9.6472e-07
-9.30545e-07
-9.02819e-07
-8.811e-07
-8.65388e-07
-8.56409e-07
-8.5489e-07
-8.62001e-07
-8.77839e-07
-9.03454e-07
-9.4277e-07
-9.97911e-07
-1.06988e-06
-1.16207e-06
-1.27989e-06
-1.43034e-06
-1.62356e-06
-1.87402e-06
-2.20223e-06
-2.63737e-06
-3.22017e-06
-4.00887e-06
-5.08832e-06
-6.58528e-06
9.37873e-05
-1.17323e-05
0.000230933
8.48872e-05
0.000332305
0.000582893
0.000794896
0.0013056
0.0021958
0.00357737
0.00684489
0.0130088
0.026034
0.055418
0.125141
0.302634
0.787951
2.23066
6.92347
23.7999
91.6386
401.197
2031.21
12108.5
87515.7
793868
9.43658e+06
1.59621e+08
4.27933e+09
1.44629e+11
1.22875e+11
1.10127e+08
3.06893e+06
2.0025e+06
1.12554e+06
429677
94739
10387.3
532.326
15.6365
0.483564
0.0352662
0.00881471
0.00560775
0.0054017
0.00553065
0.00590252
0.00639802
0.00698957
0.00753404
0.00815803
0.0086223
0.00916345
0.0096754
0.0101061
0.0105738
0.0109562
0.0112896
0.0116491
0.0117591
0.0117502
0.011791
0.0117238
0.0116707
0.0115268
0.0113042
-3.66672e-19
-3.65233e-19
-3.72083e-19
-4.01151e-19
-4.6898e-19
-5.95466e-19
-8.09456e-19
-1.16204e-18
-1.75182e-18
-2.77577e-18
-4.63669e-18
-8.17842e-18
-1.52095e-17
-2.96823e-17
-6.03686e-17
-1.26965e-16
-2.73991e-16
-6.02236e-16
-1.3398e-15
-3.00089e-15
-6.73711e-15
-1.51093e-14
-3.37744e-14
-7.51867e-14
-1.66803e-13
-3.69518e-13
-8.19765e-13
-1.82667e-12
-4.096e-12
-9.24532e-12
-2.09637e-11
-4.75738e-11
-1.07519e-10
-2.40712e-10
-5.31223e-10
-1.15065e-09
-2.43784e-09
-5.03796e-09
-1.01327e-08
-1.97965e-08
-3.7512e-08
-6.88461e-08
-1.2225e-07
-2.09834e-07
-3.47891e-07
-5.56706e-07
-8.59193e-07
-1.27811e-06
-1.83309e-06
-2.54018e-06
-3.41542e-06
-4.47395e-06
-5.70006e-06
7.18302e-05
7.12219e-05
-8.60025e-06
-8.82299e-06
-8.87917e-06
-8.67763e-06
7.27985e-05
7.37825e-05
7.48843e-05
-5.60778e-06
-4.72514e-06
-3.96892e-06
-3.3553e-06
-2.87157e-06
-2.49391e-06
-2.19808e-06
-1.96428e-06
-1.77773e-06
-1.62769e-06
-1.50612e-06
-1.40688e-06
-1.32522e-06
-1.25747e-06
-1.20106e-06
-1.15398e-06
-1.11515e-06
-1.08399e-06
-1.06045e-06
-1.04547e-06
-1.03987e-06
-1.04489e-06
-1.06109e-06
-1.08878e-06
-1.13082e-06
-1.19206e-06
-1.27325e-06
-1.37772e-06
-1.51169e-06
-1.68332e-06
-1.90426e-06
-2.19099e-06
-2.56683e-06
-3.0647e-06
-3.7303e-06
-4.62869e-06
-5.8544e-06
9.33254e-05
9.25836e-05
0.000125505
8.76603e-05
0.000333521
0.000218603
0.000577286
0.000938206
0.00160182
0.00256927
0.00422557
0.00760349
0.0143157
0.0285352
0.0612401
0.138765
0.336312
0.881371
2.51225
7.85629
27.2366
105.976
468.868
2400.45
14540.8
106495
981099
1.20032e+07
2.07327e+08
5.79946e+09
1.84023e+11
8.51133e+10
5.9252e+07
2.88887e+06
1.92969e+06
1.06958e+06
399305
85458.2
9035.36
446.264
12.8281
0.400881
0.0304341
0.00789585
0.00509645
0.00487097
0.00503913
0.00543837
0.00589611
0.00644819
0.007015
0.00749664
0.00805561
0.00846894
0.0090342
0.00947134
0.0099005
0.0103785
0.010775
0.0111161
0.0114721
0.0116302
0.0116701
0.0116461
0.0115735
0.0114631
0.0112682
-7.62653e-19
-7.5926e-19
-7.7278e-19
-8.29781e-19
-9.62831e-19
-1.21071e-18
-1.62848e-18
-2.31114e-18
-3.43859e-18
-5.36452e-18
-8.80019e-18
-1.52095e-17
-2.76716e-17
-5.27866e-17
-1.04943e-16
-2.15906e-16
-4.56185e-16
-9.83031e-16
-2.14707e-15
-4.72763e-15
-1.04477e-14
-2.30918e-14
-5.09261e-14
-1.1196e-13
-2.45518e-13
-5.38067e-13
-1.18183e-12
-2.60939e-12
-5.80273e-12
-1.3002e-11
-2.92977e-11
-6.61463e-11
-1.48902e-10
-3.32418e-10
-7.32319e-10
-1.58496e-09
-3.35794e-09
-6.94352e-09
-1.39793e-08
-2.7345e-08
-5.18818e-08
-9.53344e-08
-1.69464e-07
-2.9112e-07
-4.8293e-07
-7.72968e-07
-1.19271e-06
-1.773e-06
-2.53981e-06
-3.51362e-06
-4.71468e-06
7.16872e-05
7.05048e-05
9.54343e-05
9.46367e-05
0.000174076
0.000174679
0.000175445
0.000176487
9.68443e-05
9.81885e-05
-8.80655e-06
7.40805e-05
7.5416e-05
-5.29008e-06
-4.45475e-06
-3.79543e-06
-3.2802e-06
-2.87648e-06
-2.55742e-06
-2.30291e-06
-2.09827e-06
-1.93258e-06
-1.79744e-06
-1.68629e-06
-1.59395e-06
-1.51682e-06
-1.45206e-06
-1.3981e-06
-1.35405e-06
-1.31974e-06
-1.29631e-06
-1.28472e-06
-1.28647e-06
-1.30241e-06
-1.33249e-06
-1.37861e-06
-1.44712e-06
-1.54022e-06
-1.66071e-06
-1.81558e-06
-2.01446e-06
-2.27092e-06
-2.60394e-06
-3.04033e-06
-3.61754e-06
-4.38727e-06
-5.42279e-06
-6.83033e-06
9.21323e-05
-1.14804e-05
0.000227783
8.50288e-05
0.000330029
0.000469737
0.000421398
0.0011935
0.00181824
0.00293837
0.00486654
0.00838976
0.0158485
0.0319674
0.0683492
0.155519
0.379068
0.998651
2.86739
9.03795
31.614
124.38
557.245
2887.97
17728.1
132573
1.24216e+06
1.55003e+07
2.7879e+08
8.08435e+09
2.31806e+11
5.3848e+10
3.20529e+07
2.73089e+06
1.85297e+06
1.01013e+06
368052
76244.7
7747.31
367.769
10.3415
0.32767
0.0260417
0.00702561
0.00471833
0.0045339
0.0046891
0.00489403
0.00542841
0.00594051
0.00646996
0.00697735
0.00739735
0.00790814
0.00834819
0.00884132
0.00927855
0.00977662
0.0102106
0.0106742
0.0110131
0.0112397
0.0114417
0.0114721
0.0114437
0.0113113
0.011207
-1.66785e-18
-1.65979e-18
-1.68822e-18
-1.80608e-18
-2.08001e-18
-2.5891e-18
-3.44366e-18
-4.82899e-18
-7.0889e-18
-1.08874e-17
-1.75355e-17
-2.96823e-17
-5.27866e-17
-9.8326e-17
-1.90813e-16
-3.8335e-16
-7.91634e-16
-1.66926e-15
-3.57231e-15
-7.71813e-15
-1.67594e-14
-3.64447e-14
-7.91734e-14
-1.71651e-13
-3.71581e-13
-8.0464e-13
-1.74783e-12
-3.81993e-12
-8.41641e-12
-1.8704e-11
-4.18482e-11
-9.39237e-11
-2.1043e-10
-4.68079e-10
-1.02855e-09
-2.22248e-09
-4.70474e-09
-9.72637e-09
-1.95862e-08
-3.83297e-08
-7.27597e-08
-1.33756e-07
-2.37824e-07
-4.08563e-07
-6.77586e-07
-1.08391e-06
-1.67093e-06
-2.48053e-06
-3.547e-06
-4.89627e-06
7.07884e-05
-8.54159e-06
9.35362e-05
0.000170631
6.42594e-05
6.36821e-05
6.36846e-05
6.39864e-05
6.4736e-05
6.59703e-05
0.000175849
0.000178011
9.85466e-05
-8.52761e-06
7.47387e-05
-5.97822e-06
-5.07417e-06
-4.36687e-06
-3.81234e-06
-3.37409e-06
-3.02446e-06
-2.7432e-06
-2.51538e-06
-2.32962e-06
-2.17702e-06
-2.05038e-06
-1.94449e-06
-1.85531e-06
-1.7805e-06
-1.71876e-06
-1.66965e-06
-1.63445e-06
-1.61426e-06
-1.611e-06
-1.62565e-06
-1.65851e-06
-1.71055e-06
-1.78796e-06
-1.89637e-06
-2.03801e-06
-2.22043e-06
-2.45505e-06
-2.75792e-06
-3.15121e-06
-3.66598e-06
-4.3453e-06
-5.24819e-06
-6.45803e-06
9.12667e-05
9.05928e-05
0.000123184
0.000225304
0.000329067
0.000325614
0.000573475
0.000673408
0.00102901
0.00179879
0.00302568
0.00521639
0.00936298
0.0181413
0.0361419
0.0776192
0.176777
0.43323
1.14726
3.3175
10.5401
37.2136
148.25
672.725
3532.47
22067.8
167708
1.61084e+06
2.0651e+07
3.82046e+08
1.16643e+10
2.85414e+11
3.03111e+10
1.8123e+07
2.59477e+06
1.76991e+06
948620
336379
67260.3
6546.34
297.961
8.19905
0.264431
0.0221049
0.00633166
0.00420358
0.00411349
0.00425728
0.00455177
0.00488293
0.00546776
0.00595865
0.006432
0.00682409
0.00725588
0.0077382
0.00822318
0.00860215
0.009166
0.00962021
0.0100635
0.0105262
0.0108539
0.011064
0.0111935
0.0112174
0.0111874
0.0111173
-3.79765e-18
-3.77801e-18
-3.84033e-18
-4.09408e-18
-4.68031e-18
-5.76675e-18
-7.58324e-18
-1.05058e-17
-1.5217e-17
-2.30121e-17
-3.64039e-17
-6.03686e-17
-1.04943e-16
-1.90813e-16
-3.61251e-16
-7.08018e-16
-1.42711e-15
-2.94019e-15
-6.15573e-15
-1.30297e-14
-2.77582e-14
-5.93037e-14
-1.26737e-13
-2.70628e-13
-5.77651e-13
-1.23465e-12
-2.64964e-12
-5.72663e-12
-1.24898e-11
-2.75048e-11
-6.10506e-11
-1.36093e-10
-3.03194e-10
-6.71383e-10
-1.47017e-09
-3.16865e-09
-6.696e-09
-1.38277e-08
-2.78269e-08
-5.44351e-08
-1.03301e-07
-1.89833e-07
-3.37362e-07
-5.79143e-07
-9.59531e-07
-1.53294e-06
-2.35931e-06
-3.4956e-06
-4.98704e-06
6.99575e-05
-9.16349e-06
0.000169662
6.33017e-05
0.000244392
0.000243397
0.000243467
0.000244241
0.000245376
0.000247066
0.000249351
0.000252121
6.51692e-05
6.77513e-05
0.000179047
-9.67864e-06
7.38755e-05
7.52215e-05
-5.88195e-06
-5.11584e-06
-4.51012e-06
-4.02674e-06
-3.63766e-06
-3.32213e-06
-3.06457e-06
-2.85305e-06
-2.67772e-06
-2.53139e-06
-2.4081e-06
-2.3043e-06
-2.21802e-06
-2.14846e-06
-2.09701e-06
-2.06476e-06
-2.05412e-06
-2.06623e-06
-2.10234e-06
-2.1625e-06
-2.25137e-06
-2.37941e-06
-2.54902e-06
-2.76795e-06
-3.04986e-06
-3.41402e-06
-3.88672e-06
-4.50446e-06
-5.31734e-06
-6.3936e-06
9.00794e-05
8.96443e-05
0.000122126
0.000223278
8.30922e-05
0.000324889
0.000463801
0.000675635
0.000923292
0.00154434
0.00216089
0.00353815
0.00595416
0.0107625
0.0205556
0.0417597
0.0893027
0.203893
0.501381
1.33635
3.88927
12.4586
44.4346
179.197
824.493
4392.71
27891.1
217130
2.12693e+06
2.80799e+07
5.44199e+08
1.72413e+10
3.31331e+11
1.50893e+10
1.08523e+07
2.46959e+06
1.68345e+06
885063
304776
58659.3
5451.9
237.469
6.40095
0.211079
0.0186462
0.00560547
0.00383327
0.00372319
0.00385671
0.0041298
0.00454026
0.00491773
0.00548208
0.00592006
0.00633844
0.00674532
0.00715127
0.00756543
0.00805212
0.00849962
0.00901946
0.00948325
0.00992697
0.0103803
0.0106923
0.0109448
0.0110642
0.0110268
0.011057
-8.90936e-18
-8.86016e-18
-9.00032e-18
-9.56254e-18
-1.08541e-17
-1.32422e-17
-1.72208e-17
-2.35774e-17