/*--------------------------------*- C++ -*----------------------------------*\
  =========                 |
  \\      /  F ield         | OpenFOAM: The Open Source CFD Toolbox
   \\    /   O peration     | Website:  https://openfoam.org
    \\  /    A nd           | Version:  13
     \\/     M anipulation  |
\*---------------------------------------------------------------------------*/
FoamFile
{
    format      ascii;
    class       volScalarField;
    location    "0.0019";
    object      rho;
}
// * * * * * * * * * * * * * * * * * * * * * * * * * * * * * * * * * * * * * //

dimensions      [1 -3 0 0 0 0 0];

internalField   nonuniform List<scalar> 
33334
(
0.374457
0.374397
0.374252
0.37399
0.373716
0.373363
0.372951
0.372473
0.37195
0.371402
0.370846
0.370301
0.369795
0.369361
0.369034
0.368838
0.368834
0.369047
0.36947
0.370139
0.371047
0.372185
0.373533
0.375069
0.37677
0.378616
0.380593
0.38269
0.384893
0.387197
0.389585
0.392062
0.394617
0.39726
0.399992
0.402816
0.405737
0.408758
0.411875
0.415083
0.418369
0.421715
0.4251
0.428505
0.43191
0.435298
0.438652
0.441953
0.445184
0.448327
0.451366
0.454289
0.457084
0.459746
0.462266
0.464635
0.466841
0.46887
0.470716
0.47237
0.4738
0.474936
0.475821
0.476669
0.477449
0.478168
0.47884
0.47948
0.480099
0.480698
0.481285
0.481869
0.482462
0.483081
0.483743
0.484463
0.485224
0.486141
0.487244
0.488259
0.489777
0.491076
0.492244
0.494095
0.496617
0.499437
0.502756
0.506514
0.510718
0.515352
0.520459
0.52602
0.532038
0.53849
0.545395
0.55274
0.560521
0.568734
0.577343
0.586382
0.595823
0.605636
0.615876
0.626455
0.637489
0.648885
0.660686
0.672915
0.685569
0.698616
0.712102
0.726086
0.740591
0.755662
0.771384
0.78775
0.80485
0.822787
0.841692
0.861711
0.883079
0.906012
0.930828
0.957999
0.988425
1.02346
1.0645
1.1148
1.18115
1.27467
1.34436
1.27071
0.877868
0.805765
0.834955
0.88862
0.969712
1.08578
1.24161
1.42925
1.62098
1.77858
1.8768
1.92105
1.94098
1.95486
1.96552
1.97499
1.98396
1.9904
1.99321
1.99425
1.99467
1.99475
1.99442
1.99349
1.99198
1.99019
1.98826
1.98629
1.98437
1.98253
1.98077
1.97908
1.97742
1.97578
0.374397
0.374492
0.374255
0.373939
0.373634
0.373272
0.372857
0.372396
0.371896
0.371363
0.370816
0.370276
0.369771
0.369335
0.369003
0.368798
0.368782
0.368983
0.369392
0.370042
0.37093
0.372046
0.373372
0.374886
0.376566
0.37839
0.380348
0.382427
0.384614
0.386904
0.389278
0.391743
0.394285
0.396916
0.399638
0.40245
0.405361
0.408373
0.411484
0.414685
0.417964
0.421304
0.424685
0.428086
0.431488
0.434874
0.438229
0.441534
0.444771
0.447923
0.450973
0.453906
0.456714
0.459389
0.461923
0.464304
0.466522
0.468566
0.470427
0.472097
0.473545
0.4747
0.475597
0.47645
0.477237
0.477961
0.478638
0.479278
0.479892
0.480495
0.481086
0.481672
0.482263
0.482879
0.483538
0.48423
0.484932
0.485796
0.486856
0.487914
0.488992
0.490843
0.492543
0.4945
0.497061
0.499824
0.503054
0.506681
0.510724
0.515226
0.520171
0.525579
0.531479
0.537868
0.544714
0.552016
0.559782
0.567953
0.576554
0.585568
0.594965
0.604803
0.614982
0.625624
0.636578
0.647978
0.659834
0.672026
0.684598
0.697667
0.711246
0.725303
0.739855
0.754888
0.770507
0.786833
0.803848
0.821824
0.840788
0.860867
0.882483
0.905895
0.931565
0.959967
0.991314
1.02688
1.06817
1.11829
1.18207
1.26953
1.34175
1.28389
0.888827
0.805546
0.834186
0.887485
0.968338
1.08423
1.24006
1.42817
1.62119
1.78048
1.88049
1.92566
1.94618
1.96063
1.97139
1.97956
1.98502
1.98856
1.99134
1.99297
1.99362
1.99382
1.99367
1.99303
1.99184
1.99016
1.98825
1.9863
1.98438
1.98254
1.98079
1.97909
1.97743
1.97579
0.374252
0.374255
0.374104
0.373867
0.373548
0.373172
0.372742
0.372264
0.371751
0.371218
0.370683
0.370162
0.36968
0.369265
0.368948
0.368759
0.368755
0.368962
0.369376
0.370032
0.370927
0.372048
0.373377
0.374894
0.376574
0.3784
0.380358
0.382438
0.384627
0.386918
0.389294
0.39176
0.394304
0.396934
0.399654
0.402466
0.405376
0.408388
0.411498
0.4147
0.41798
0.421321
0.424701
0.4281
0.431501
0.434886
0.438241
0.441548
0.444788
0.447943
0.450995
0.45393
0.456738
0.459412
0.461942
0.46432
0.466535
0.468576
0.470431
0.472094
0.47354
0.474695
0.47559
0.476427
0.477198
0.477913
0.478583
0.479221
0.479838
0.480446
0.481046
0.481641
0.482235
0.482852
0.483502
0.484196
0.484973
0.485844
0.487005
0.488308
0.489605
0.491109
0.493237
0.495301
0.49741
0.499925
0.503004
0.506541
0.510562
0.515085
0.520097
0.525583
0.531538
0.537965
0.544845
0.552178
0.559956
0.568148
0.576762
0.58578
0.595194
0.605023
0.615221
0.625836
0.636812
0.648224
0.660056
0.672257
0.684859
0.697918
0.711457
0.725471
0.739986
0.755031
0.770688
0.787027
0.804084
0.822028
0.840941
0.860983
0.882459
0.905625
0.930851
0.958696
0.989866
1.02573
1.06774
1.11849
1.18252
1.26935
1.33751
1.27302
0.882081
0.805436
0.83447
0.888004
0.969028
1.08503
1.24078
1.42855
1.6208
1.77903
1.87746
1.92191
1.94222
1.9564
1.96673
1.9746
1.98054
1.98494
1.98842
1.99089
1.99214
1.99257
1.99264
1.99228
1.99135
1.98993
1.98818
1.98629
1.9844
1.98257
1.98081
1.97911
1.97744
1.97579
0.37399
0.373939
0.373867
0.373632
0.373348
0.372991
0.372576
0.372113
0.371612
0.37109
0.370566
0.370059
0.369591
0.369189
0.368885
0.36871
0.368717
0.368934
0.369357
0.37002
0.370921
0.372048
0.373383
0.374904
0.376589
0.378419
0.380383
0.382469
0.384664
0.386962
0.389345
0.391815
0.394362
0.396992
0.39971
0.402519
0.405426
0.408433
0.41154
0.414739
0.418018
0.421356
0.424735
0.428134
0.431535
0.434922
0.438279
0.441588
0.444833
0.447992
0.45105
0.453991
0.456806
0.459487
0.462025
0.464411
0.466632
0.468675
0.47053
0.472195
0.473641
0.474801
0.475701
0.476521
0.477277
0.477981
0.478639
0.479266
0.479877
0.48048
0.48108
0.481682
0.482289
0.482921
0.483584
0.48429
0.48505
0.485942
0.48702
0.488179
0.489507
0.491085
0.493095
0.495104
0.497274
0.499893
0.503013
0.506598
0.510645
0.515171
0.52019
0.525699
0.531682
0.53813
0.54503
0.552382
0.560172
0.568381
0.577011
0.586036
0.595464
0.605295
0.615506
0.626118
0.637102
0.648516
0.660332
0.672544
0.685161
0.698219
0.711751
0.725763
0.74028
0.755348
0.771027
0.787375
0.804464
0.822415
0.84135
0.861452
0.882951
0.906143
0.931368
0.95918
0.990403
1.02623
1.06831
1.11904
1.18371
1.27248
1.34181
1.26603
0.874704
0.804861
0.834231
0.88796
0.969163
1.08534
1.24123
1.42906
1.62115
1.77889
1.87637
1.92036
1.94044
1.95416
1.9636
1.97037
1.97567
1.98018
1.98414
1.98746
1.98969
1.99078
1.9912
1.99117
1.9906
1.98949
1.98797
1.98623
1.98441
1.98259
1.98084
1.97913
1.97746
1.9758
0.373716
0.373634
0.373548
0.373348
0.373065
0.372712
0.3723
0.371847
0.371362
0.370863
0.370364
0.369884
0.369443
0.369066
0.368781
0.368628
0.368652
0.36888
0.369314
0.369986
0.370893
0.372026
0.373364
0.374888
0.376575
0.378409
0.380375
0.382466
0.384667
0.386971
0.389359
0.39183
0.394378
0.397007
0.399722
0.402528
0.405432
0.408436
0.41154
0.414736
0.41801
0.421344
0.424718
0.428111
0.431508
0.434891
0.438246
0.441555
0.4448
0.447963
0.451025
0.453971
0.456792
0.459478
0.462022
0.464414
0.466638
0.46868
0.470537
0.472206
0.473654
0.474816
0.475724
0.476535
0.477281
0.477971
0.478616
0.479232
0.479834
0.480434
0.481038
0.481647
0.482262
0.482897
0.48356
0.484275
0.485029
0.485924
0.486981
0.488161
0.489536
0.491114
0.492939
0.49494
0.497211
0.499901
0.503027
0.506601
0.510635
0.515156
0.520179
0.525701
0.531706
0.538174
0.54509
0.552451
0.560241
0.568452
0.577081
0.5861
0.595528
0.60535
0.615561
0.626159
0.637143
0.648544
0.66033
0.672537
0.685159
0.698204
0.711718
0.725726
0.74025
0.755335
0.771042
0.787415
0.804551
0.822528
0.841495
0.861658
0.883157
0.906352
0.93166
0.959605
0.991123
1.02711
1.06945
1.12031
1.18561
1.2754
1.34335
1.25497
0.866683
0.804523
0.834275
0.888315
0.969802
1.08635
1.2426
1.43051
1.62213
1.7786
1.87461
1.91777
1.93724
1.95024
1.95895
1.96511
1.9701
1.9746
1.97887
1.98282
1.98608
1.98823
1.98933
1.9897
1.98951
1.98877
1.98756
1.98604
1.98435
1.9826
1.98086
1.97916
1.97748
1.97581
0.373363
0.373272
0.373172
0.372991
0.372712
0.372371
0.371975
0.371542
0.371081
0.370608
0.370138
0.369689
0.369278
0.368932
0.368671
0.368544
0.368593
0.368834
0.369282
0.369964
0.37088
0.372018
0.37336
0.374885
0.376573
0.378408
0.380377
0.382471
0.384674
0.386979
0.389368
0.391839
0.394385
0.397011
0.399722
0.402524
0.405424
0.408423
0.411523
0.414715
0.417985
0.421315
0.424685
0.428074
0.431466
0.434845
0.438197
0.441505
0.444751
0.447916
0.450981
0.453932
0.456757
0.459448
0.461997
0.464391
0.466615
0.468658
0.470517
0.472191
0.473641
0.474808
0.475721
0.476525
0.47726
0.477938
0.478569
0.479171
0.479764
0.480361
0.480969
0.481588
0.482216
0.482857
0.483521
0.484236
0.484992
0.48587
0.486926
0.488127
0.489489
0.491019
0.492792
0.494825
0.497153
0.499877
0.503009
0.506587
0.510627
0.515151
0.520175
0.525694
0.531692
0.538158
0.545073
0.552436
0.560224
0.568438
0.577067
0.586085
0.595515
0.605337
0.615552
0.626152
0.637142
0.648534
0.660307
0.672512
0.685139
0.698189
0.711711
0.725742
0.74029
0.755401
0.771138
0.787545
0.804734
0.822758
0.84178
0.862023
0.883583
0.906846
0.932289
0.960399
0.99207
1.0281
1.07051
1.12184
1.18804
1.27914
1.34382
1.24171
0.857276
0.80397
0.834152
0.888579
0.970458
1.08754
1.24431
1.43231
1.62321
1.77811
1.8725
1.91451
1.93302
1.94512
1.95322
1.95901
1.96381
1.96833
1.97283
1.97726
1.98134
1.98462
1.9868
1.98784
1.98807
1.98772
1.98687
1.98564
1.98416
1.98255
1.98087
1.97918
1.9775
1.97583
0.372951
0.372857
0.372742
0.372576
0.3723
0.371975
0.3716
0.371192
0.370761
0.370319
0.369882
0.369466
0.36909
0.368778
0.368544
0.368446
0.368521
0.368779
0.369244
0.369939
0.370864
0.372008
0.373353
0.37488
0.37657
0.378407
0.380379
0.382476
0.384682
0.386989
0.38938
0.39185
0.394396
0.397019
0.399727
0.402527
0.405422
0.408417
0.411512
0.4147
0.417967
0.421292
0.424657
0.42804
0.431425
0.434797
0.438143
0.441447
0.444691
0.447855
0.450922
0.453876
0.456706
0.459402
0.461955
0.464353
0.466579
0.468623
0.470486
0.472163
0.473618
0.474791
0.475709
0.476509
0.477236
0.477902
0.478519
0.479107
0.479688
0.480281
0.480892
0.481524
0.48217
0.482826
0.4835
0.484214
0.484971
0.485842
0.486882
0.488075
0.489406
0.49093
0.492698
0.494755
0.497118
0.499861
0.503006
0.506596
0.510652
0.515187
0.520214
0.525728
0.531718
0.538177
0.545088
0.552448
0.560235
0.568453
0.577087
0.586111
0.595547
0.605376
0.615604
0.626218
0.63722
0.648607
0.660379
0.672583
0.685216
0.698286
0.711832
0.725894
0.740475
0.755616
0.771382
0.787819
0.805041
0.823092
0.842153
0.862448
0.884115
0.907492
0.933046
0.96132
0.993146
1.02942
1.07186
1.1239
1.19093
1.28334
1.34294
1.22553
0.846632
0.803412
0.834069
0.888961
0.971369
1.08915
1.24655
1.4346
1.62455
1.77753
1.86988
1.91026
1.92762
1.93888
1.94655
1.95215
1.95691
1.96153
1.96625
1.97106
1.97573
1.97992
1.98324
1.98537
1.98625
1.98632
1.98586
1.98497
1.98377
1.98236
1.98082
1.97919
1.97753
1.97586
0.372473
0.372396
0.372264
0.372113
0.371847
0.371542
0.371192
0.370813
0.370413
0.370006
0.369605
0.369226
0.368886
0.368611
0.368411
0.368345
0.368447
0.368726
0.369213
0.369923
0.370858
0.372008
0.373357
0.374885
0.376576
0.378414
0.380387
0.382487
0.384696
0.387005
0.389398
0.391868
0.394414
0.397036
0.399742
0.402537
0.405428
0.408418
0.411507
0.414689
0.417949
0.421268
0.424626
0.428001
0.431379
0.434744
0.438085
0.441385
0.444627
0.447791
0.450859
0.453816
0.456649
0.459348
0.461904
0.464304
0.466532
0.46858
0.470446
0.472128
0.473587
0.474766
0.47569
0.476487
0.477207
0.477864
0.478469
0.479044
0.479613
0.480199
0.480813
0.481458
0.482124
0.4828
0.48349
0.484206
0.484967
0.485836
0.486866
0.488048
0.489365
0.490885
0.492644
0.494705
0.497084
0.49984
0.503006
0.506619
0.510698
0.515248
0.520281
0.525792
0.531777
0.53823
0.545138
0.552496
0.560284
0.568509
0.577152
0.586189
0.595635
0.605474
0.615716
0.626347
0.63737
0.648763
0.660544
0.672752
0.685394
0.698492
0.712063
0.726143
0.740746
0.755906
0.77169
0.788154
0.805406
0.82351
0.842645
0.863003
0.88482
0.908365
0.934025
0.96242
0.994349
1.03094
1.07366
1.12612
1.19434
1.28689
1.34438
1.20428
0.835532
0.802727
0.834036
0.889436
0.972474
1.09105
1.24914
1.43718
1.62596
1.7767
1.86661
1.90506
1.92126
1.93178
1.93913
1.94465
1.94947
1.95426
1.95924
1.96438
1.96951
1.97437
1.97861
1.98189
1.98386
1.98456
1.9845
1.98399
1.98312
1.98198
1.98064
1.97914
1.97753
1.97588
0.37195
0.371896
0.371751
0.371612
0.371362
0.371081
0.370761
0.370413
0.370049
0.36968
0.369317
0.368978
0.368676
0.368437
0.368276
0.368244
0.368375
0.368678
0.369188
0.369916
0.370861
0.372019
0.373372
0.374901
0.376592
0.378429
0.380403
0.382505
0.384717
0.387029
0.389424
0.391894
0.394441
0.397061
0.399765
0.402557
0.405443
0.408426
0.41151
0.414685
0.417939
0.42125
0.424599
0.427967
0.431337
0.434696
0.438031
0.441327
0.444566
0.447728
0.450795
0.453751
0.456585
0.459286
0.461844
0.464246
0.466477
0.468529
0.4704
0.472086
0.473549
0.474735
0.475665
0.476463
0.477179
0.47783
0.478425
0.478989
0.479546
0.480122
0.480734
0.481388
0.482075
0.482776
0.483488
0.484216
0.484989
0.485861
0.486884
0.488057
0.48937
0.490886
0.492633
0.494687
0.49707
0.499837
0.503026
0.506662
0.510762
0.515325
0.520367
0.525882
0.53187
0.538326
0.545236
0.552597
0.560392
0.568624
0.577279
0.58633
0.595786
0.605636
0.615889
0.626541
0.637591
0.649004
0.660804
0.673018
0.685665
0.698782
0.712366
0.726449
0.741069
0.756258
0.772073
0.788579
0.805875
0.82406
0.843293
0.863719
0.885654
0.909354
0.935153
0.963679
0.995734
1.0326
1.07592
1.12887
1.19829
1.29081
1.34535
1.1784
0.824474
0.801953
0.834026
0.890014
0.973755
1.09323
1.25203
1.44
1.62736
1.7755
1.86258
1.89897
1.91408
1.92401
1.93114
1.93664
1.94159
1.94658
1.95184
1.95729
1.96281
1.96818
1.97312
1.97733
1.98046
1.98223
1.98279
1.98267
1.98216
1.98134
1.98026
1.97897
1.97749
1.97589
0.371402
0.371363
0.371218
0.37109
0.370863
0.370608
0.370319
0.370006
0.36968
0.369351
0.369028
0.368728
0.368466
0.368264
0.368142
0.368146
0.368309
0.368639
0.369174
0.369919
0.37088
0.372048
0.373407
0.374937
0.376627
0.378464
0.380438
0.382541
0.384754
0.387068
0.389465
0.391936
0.394483
0.397101
0.399803
0.40259
0.405471
0.408448
0.411525
0.414693
0.417939
0.421241
0.424581
0.427939
0.4313
0.434651
0.43798
0.441271
0.444506
0.447665
0.45073
0.453686
0.45652
0.459222
0.461782
0.464187
0.466423
0.468479
0.470355
0.472044
0.473512
0.474704
0.475642
0.476441
0.477157
0.477804
0.478393
0.478946
0.479488
0.48005
0.480655
0.481313
0.482015
0.482742
0.483482
0.484236
0.485033
0.485915
0.486934
0.488101
0.489412
0.490926
0.492667
0.494716
0.497101
0.499879
0.503085
0.506733
0.510845
0.515418
0.52047
0.525992
0.531987
0.538449
0.545365
0.552731
0.560533
0.568772
0.577436
0.5865
0.595965
0.605826
0.61609
0.62676
0.637836
0.649278
0.661106
0.673332
0.685988
0.699122
0.712719
0.72681
0.741456
0.756689
0.772556
0.789121
0.806474
0.824755
0.844111
0.864632
0.886654
0.910473
0.936419
0.965132
0.997362
1.03445
1.07831
1.13215
1.20289
1.29589
1.34438
1.14839
0.813965
0.801162
0.833946
0.890634
0.975154
1.0956
1.25513
1.44296
1.62863
1.77383
1.85779
1.89209
1.90626
1.91574
1.92275
1.92827
1.93334
1.93855
1.94407
1.94984
1.95571
1.96149
1.96698
1.9719
1.97598
1.97892
1.98052
1.98101
1.98088
1.98041
1.97964
1.9786
1.97733
1.97585
0.370846
0.370816
0.370683
0.370566
0.370364
0.370138
0.369882
0.369605
0.369317
0.369028
0.368746
0.368486
0.368264
0.368098
0.368017
0.368059
0.368255
0.368614
0.369174
0.369944
0.370921
0.372101
0.373465
0.374997
0.376687
0.378523
0.380496
0.382601
0.384814
0.387128
0.389526
0.391997
0.394543
0.397159
0.399858
0.402641
0.405515
0.408485
0.411554
0.414713
0.417949
0.421242
0.424572
0.427919
0.431271
0.434615
0.437937
0.441223
0.444454
0.447609
0.450671
0.453625
0.456459
0.459162
0.461725
0.464134
0.466374
0.468436
0.470316
0.472009
0.473482
0.474679
0.475625
0.476428
0.477144
0.47779
0.478374
0.478917
0.479444
0.479989
0.48058
0.481233
0.481944
0.482693
0.483466
0.484255
0.485089
0.485995
0.487021
0.488186
0.489496
0.491009
0.492749
0.494798
0.497184
0.499965
0.503175
0.506825
0.510941
0.515522
0.520584
0.526113
0.532114
0.538581
0.545503
0.552876
0.560686
0.568931
0.577601
0.586677
0.596153
0.606026
0.616299
0.626983
0.638078
0.64955
0.661412
0.673662
0.686339
0.699494
0.713118
0.727242
0.741933
0.757227
0.773169
0.789816
0.807254
0.825637
0.845114
0.865751
0.887843
0.911759
0.937843
0.966748
0.999225
1.03663
1.08092
1.13569
1.20819
1.3008
1.34413
1.11231
0.804359
0.80026
0.833882
0.891242
0.976634
1.09813
1.25841
1.44598
1.62969
1.77162
1.85226
1.88455
1.89795
1.90714
1.91407
1.91963
1.92482
1.93022
1.93599
1.94205
1.94824
1.95439
1.96032
1.9658
1.9706
1.97452
1.97731
1.97881
1.97926
1.97916
1.97873
1.978
1.97697
1.97569
0.370301
0.370276
0.370162
0.370059
0.369884
0.369689
0.369466
0.369226
0.368978
0.368728
0.368486
0.368267
0.368084
0.367955
0.367915
0.367994
0.36822
0.368616
0.369205
0.37
0.370996
0.372187
0.373557
0.375091
0.376782
0.378619
0.380593
0.382698
0.384911
0.387225
0.389622
0.392091
0.394635
0.397247
0.39994
0.402716
0.405583
0.408544
0.411603
0.41475
0.417973
0.421254
0.424573
0.42791
0.431253
0.434589
0.437905
0.441185
0.444411
0.447562
0.450622
0.453574
0.456408
0.459114
0.461679
0.464092
0.466337
0.468404
0.470289
0.471985
0.473461
0.474664
0.475616
0.476422
0.477139
0.477786
0.478368
0.478905
0.47942
0.479946
0.480517
0.481156
0.481866
0.48263
0.483435
0.484265
0.485146
0.48609
0.487137
0.488313
0.489626
0.491143
0.492886
0.494936
0.497322
0.5001
0.503303
0.506947
0.511059
0.515641
0.520704
0.526237
0.532243
0.538715
0.545643
0.553022
0.560837
0.569085
0.577758
0.586843
0.596328
0.606213
0.616495
0.62719
0.638299
0.649799
0.661699
0.67399
0.686706
0.699899
0.713577
0.727772
0.742536
0.75791
0.773939
0.790685
0.808233
0.826716
0.846281
0.867027
0.889218
0.91323
0.939433
0.968562
1.0013
1.039
1.08407
1.13959
1.21449
1.30422
1.34432
1.07087
0.795939
0.799165
0.833837
0.891846
0.978179
1.10079
1.26182
1.44901
1.63049
1.76888
1.84609
1.8765
1.88929
1.8983
1.9052
1.9108
1.91608
1.92163
1.92761
1.93393
1.94043
1.94691
1.95322
1.95915
1.96453
1.96919
1.97298
1.97568
1.97713
1.97758
1.97751
1.97711
1.97638
1.97535
0.369795
0.369771
0.36968
0.369591
0.369443
0.369278
0.36909
0.368886
0.368676
0.368466
0.368264
0.368084
0.367938
0.367847
0.367844
0.367965
0.368226
0.368658
0.369281
0.3701
0.371114
0.372315
0.37369
0.375226
0.376915
0.378752
0.380725
0.382831
0.385046
0.38736
0.389756
0.392221
0.394761
0.397367
0.400054
0.402822
0.405681
0.408632
0.411679
0.414813
0.418022
0.421287
0.424592
0.427917
0.431251
0.43458
0.43789
0.441166
0.444387
0.447535
0.450591
0.453543
0.456377
0.459084
0.461652
0.464068
0.466317
0.468388
0.470276
0.471974
0.473453
0.474661
0.475621
0.476431
0.47715
0.477797
0.47838
0.478915
0.479423
0.479934
0.480484
0.4811
0.481794
0.482561
0.483389
0.48426
0.485191
0.486183
0.487268
0.488471
0.4898
0.491329
0.493078
0.495132
0.497517
0.50029
0.503483
0.507117
0.511219
0.515795
0.520854
0.526384
0.53239
0.538862
0.545793
0.553175
0.560994
0.569243
0.577915
0.587003
0.596498
0.606397
0.616695
0.627404
0.638526
0.650051
0.661992
0.674338
0.687117
0.700369
0.714127
0.728422
0.743285
0.758753
0.77487
0.791717
0.809388
0.82796
0.84758
0.868419
0.890725
0.914865
0.941213
0.970463
1.00361
1.04173
1.08722
1.1442
1.2212
1.30838
1.34044
1.02651
0.788837
0.798034
0.833667
0.892425
0.979783
1.10356
1.26534
1.45201
1.63101
1.76564
1.83939
1.8681
1.88042
1.88932
1.8962
1.90182
1.90717
1.91283
1.91898
1.92553
1.93229
1.93908
1.94572
1.95204
1.9579
1.96316
1.96771
1.97143
1.97408
1.97551
1.97597
1.97591
1.97552
1.97478
0.369361
0.369335
0.369265
0.369189
0.369066
0.368932
0.368778
0.368611
0.368437
0.368264
0.368098
0.367955
0.367847
0.367799
0.367837
0.368
0.3683
0.368771
0.369423
0.370264
0.371293
0.372504
0.373883
0.375419
0.377107
0.378942
0.380915
0.38302
0.385234
0.387546
0.389939
0.3924
0.394934
0.397531
0.400209
0.402967
0.405815
0.408755
0.41179
0.414911
0.418106
0.421356
0.424645
0.427955
0.431276
0.434595
0.437898
0.441168
0.444385
0.44753
0.450585
0.453535
0.45637
0.459078
0.461647
0.464065
0.466317
0.468391
0.470281
0.471982
0.473464
0.474679
0.475647
0.47646
0.477181
0.477829
0.478414
0.478948
0.479453
0.479956
0.480491
0.481082
0.48175
0.482501
0.483335
0.484237
0.485215
0.486261
0.487396
0.488642
0.490005
0.49156
0.493325
0.495388
0.497777
0.500546
0.503731
0.507353
0.511443
0.516007
0.521055
0.52658
0.532581
0.539049
0.545981
0.553363
0.561183
0.569431
0.578101
0.587193
0.596697
0.606612
0.616932
0.627661
0.638801
0.650356
0.662341
0.67475
0.687608
0.700939
0.714791
0.729195
0.744166
0.759735
0.77593
0.792862
0.810634
0.829283
0.848953
0.869857
0.892312
0.916607
0.943121
0.972619
1.006
1.04478
1.09106
1.14897
1.22864
1.31272
1.33082
0.980649
0.783154
0.796794
0.833438
0.892986
0.981439
1.10642
1.26894
1.45496
1.63127
1.762
1.83233
1.85948
1.87142
1.88023
1.88709
1.89273
1.89812
1.90386
1.91014
1.91687
1.92386
1.93092
1.93786
1.94453
1.95079
1.95654
1.96171
1.96622
1.96991
1.97254
1.97395
1.97441
1.97435
1.97394
0.369034
0.369003
0.368948
0.368885
0.368781
0.368671
0.368544
0.368411
0.368276
0.368142
0.368017
0.367915
0.367844
0.367837
0.367922
0.368125
0.368463
0.368965
0.369645
0.370507
0.37155
0.372767
0.374146
0.37568
0.377365
0.379198
0.38117
0.383275
0.385488
0.387799
0.390187
0.392641
0.395166
0.397752
0.400418
0.403163
0.405999
0.408928
0.41195
0.415057
0.418237
0.421472
0.424746
0.428043
0.431351
0.434659
0.437952
0.441213
0.444425
0.447565
0.450618
0.453567
0.456401
0.459109
0.461678
0.464097
0.466349
0.468424
0.470316
0.472018
0.473503
0.474725
0.475702
0.476519
0.477241
0.47789
0.478476
0.479012
0.479519
0.480019
0.480542
0.481115
0.481757
0.482478
0.483297
0.484205
0.485217
0.486314
0.487506
0.488807
0.49022
0.491818
0.493615
0.495698
0.498101
0.500874
0.504057
0.507671
0.511748
0.516298
0.521334
0.526849
0.532843
0.539306
0.546236
0.553617
0.561438
0.569689
0.578362
0.587461
0.596979
0.606914
0.617262
0.62802
0.63919
0.650784
0.662815
0.675288
0.688227
0.701641
0.715581
0.730076
0.74514
0.760796
0.777058
0.794054
0.811888
0.830618
0.85035
0.871358
0.893932
0.918407
0.945181
0.974818
1.00868
1.04797
1.09495
1.15457
1.23698
1.31665
1.31417
0.935108
0.778579
0.795508
0.833099
0.893523
0.983133
1.10937
1.27261
1.45785
1.63132
1.75805
1.82504
1.85075
1.86235
1.87109
1.87791
1.88355
1.88896
1.89475
1.90113
1.908
1.91517
1.92245
1.92966
1.93664
1.94325
1.94943
1.95511
1.96026
1.96477
1.96845
1.97105
1.97244
1.97288
1.9728
0.368838
0.368798
0.368759
0.36871
0.368628
0.368544
0.368446
0.368345
0.368244
0.368146
0.368059
0.367994
0.367965
0.368
0.368125
0.368361
0.368736
0.36927
0.369973
0.370852
0.371903
0.373121
0.374499
0.376029
0.37771
0.379541
0.381511
0.383616
0.385827
0.388134
0.390517
0.392963
0.395477
0.39805
0.400702
0.403433
0.406254
0.409167
0.412174
0.415265
0.41843
0.421651
0.424912
0.428197
0.431495
0.434792
0.438076
0.44133
0.444534
0.44767
0.450718
0.453664
0.456495
0.4592
0.461766
0.464181
0.46643
0.468503
0.470394
0.472096
0.473582
0.474809
0.475792
0.476612
0.477334
0.477983
0.478572
0.479114
0.479628
0.480133
0.480654
0.481211
0.481825
0.482517
0.483305
0.484194
0.485214
0.486342
0.487587
0.488952
0.490425
0.492078
0.493924
0.496044
0.498476
0.501264
0.504456
0.508071
0.512143
0.516682
0.521706
0.527213
0.533198
0.539658
0.546587
0.553969
0.561793
0.570051
0.578734
0.587848
0.597385
0.607343
0.617723
0.628517
0.63973
0.651374
0.663453
0.675981
0.688988
0.702472
0.716482
0.731033
0.746156
0.761874
0.778196
0.795242
0.81312
0.831927
0.851776
0.8729
0.895593
0.920299
0.947282
0.977334
1.01155
1.05145
1.09949
1.16048
1.24589
1.32078
1.28774
0.892065
0.774956
0.794071
0.832732
0.894022
0.984864
1.11241
1.27638
1.46074
1.63123
1.75392
1.81762
1.84197
1.85326
1.86189
1.86867
1.87429
1.8797
1.88553
1.89197
1.89894
1.90626
1.91373
1.92116
1.9284
1.93533
1.94187
1.948
1.95368
1.95885
1.96337
1.96704
1.96961
1.97096
1.97136
0.368834
0.368782
0.368755
0.368717
0.368652
0.368593
0.368521
0.368447
0.368375
0.368309
0.368255
0.36822
0.368226
0.3683
0.368463
0.368736
0.369144
0.369703
0.370424
0.371313
0.372367
0.373582
0.374954
0.376478
0.378155
0.379983
0.381952
0.384057
0.386267
0.38857
0.390946
0.393381
0.395883
0.398442
0.401078
0.403792
0.406596
0.409493
0.412484
0.415559
0.418708
0.421914
0.425161
0.428433
0.431718
0.435005
0.438279
0.441523
0.44472
0.447848
0.450891
0.453831
0.456657
0.459356
0.461917
0.464327
0.466572
0.468642
0.47053
0.472229
0.473715
0.474947
0.475937
0.476759
0.477481
0.47813
0.478722
0.47927
0.479796
0.480309
0.480833
0.481382
0.481973
0.482631
0.483381
0.484241
0.485246
0.486377
0.487654
0.48907
0.490604
0.492326
0.494232
0.496401
0.498875
0.501693
0.50491
0.508537
0.512616
0.517151
0.522169
0.527673
0.533652
0.540113
0.547041
0.554426
0.562258
0.570529
0.579233
0.588369
0.597935
0.607921
0.618337
0.62917
0.640435
0.652132
0.664255
0.676823
0.689871
0.703402
0.717455
0.732033
0.747183
0.762945
0.779326
0.796427
0.814351
0.833259
0.853251
0.874507
0.897409
0.922313
0.949595
0.980034
1.01473
1.0554
1.10424
1.16741
1.25559
1.32425
1.25087
0.852832
0.771933
0.792563
0.832271
0.894508
0.98667
1.11559
1.28029
1.46371
1.6311
1.7497
1.81016
1.83318
1.84416
1.85267
1.85937
1.86496
1.87036
1.87621
1.88269
1.88973
1.89716
1.90477
1.91239
1.91986
1.92705
1.93392
1.94044
1.94658
1.95229
1.95749
1.96203
1.96567
1.9682
1.96949
0.369047
0.368983
0.368962
0.368934
0.36888
0.368834
0.368779
0.368726
0.368678
0.368639
0.368614
0.368616
0.368658
0.368771
0.368965
0.36927
0.369703
0.370281
0.371013
0.371905
0.372957
0.374165
0.375529
0.377046
0.378718
0.380545
0.382514
0.384618
0.386827
0.389126
0.391496
0.393921
0.396409
0.398952
0.401571
0.404266
0.407052
0.409931
0.412904
0.415963
0.419097
0.422289
0.425523
0.428782
0.432055
0.435328
0.438589
0.441822
0.445008
0.448127
0.451163
0.454096
0.456914
0.459606
0.462159
0.464562
0.466801
0.468865
0.470747
0.472442
0.473924
0.475156
0.476149
0.476971
0.477691
0.478338
0.478932
0.479487
0.480024
0.480551
0.481086
0.481635
0.482213
0.482847
0.483561
0.484383
0.485356
0.486467
0.48775
0.489193
0.490772
0.492553
0.494523
0.496751
0.499278
0.502137
0.505386
0.509035
0.513131
0.517672
0.522696
0.528203
0.534182
0.540649
0.547579
0.554973
0.562818
0.571108
0.57984
0.589005
0.598604
0.608621
0.619074
0.629944
0.641257
0.653001
0.665162
0.677758
0.690829
0.704392
0.718477
0.733071
0.748241
0.764041
0.780486
0.797662
0.815661
0.8347
0.854824
0.876295
0.899439
0.924517
0.952171
0.98306
1.01839
1.05951
1.10985
1.17541
1.26641
1.32476
1.20386
0.818939
0.769178
0.791093
0.831752
0.895016
0.988593
1.11898
1.28443
1.46683
1.63099
1.74543
1.80269
1.82443
1.83507
1.84344
1.85004
1.85557
1.86095
1.8668
1.8733
1.8804
1.8879
1.89562
1.90338
1.91103
1.91846
1.92561
1.93246
1.939
1.94519
1.95096
1.95619
1.96072
1.96432
1.96678
0.36947
0.369392
0.369376
0.369357
0.369314
0.369282
0.369244
0.369213
0.369188
0.369174
0.369174
0.369205
0.369281
0.369423
0.369645
0.369973
0.370424
0.371013
0.371749
0.372639
0.373682
0.374881
0.376236
0.377746
0.379414
0.38124
0.383209
0.385313
0.387521
0.389816
0.392178
0.394593
0.397067
0.399594
0.402195
0.404872
0.407639
0.410499
0.413455
0.416498
0.419618
0.422796
0.426017
0.429263
0.432522
0.435781
0.439027
0.442246
0.44542
0.448529
0.451554
0.454479
0.457288
0.459971
0.462516
0.464911
0.467141
0.469197
0.471072
0.472758
0.474233
0.475462
0.476455
0.477275
0.477991
0.478635
0.479231
0.479793
0.480343
0.480883
0.481432
0.481987
0.482561
0.483179
0.483863
0.484649
0.48558
0.486653
0.487918
0.489356
0.490954
0.49278
0.494804
0.497085
0.499666
0.502571
0.505859
0.509537
0.513656
0.51821
0.523247
0.528761
0.534744
0.541219
0.548152
0.555561
0.563423
0.571741
0.580507
0.589704
0.599342
0.609392
0.619891
0.6308
0.642157
0.653937
0.666129
0.678755
0.691853
0.705449
0.719566
0.734191
0.749399
0.765245
0.781775
0.79904
0.817168
0.836349
0.856614
0.878359
0.901687
0.927089
0.955079
0.98648
1.02223
1.06437
1.11635
1.18417
1.2755
1.3264
1.14429
0.791632
0.766608
0.789616
0.831214
0.895617
0.990716
1.12265
1.28888
1.47016
1.63097
1.74117
1.79524
1.8157
1.82601
1.8342
1.84068
1.84614
1.85149
1.85731
1.86383
1.87095
1.8785
1.8863
1.89417
1.90196
1.90958
1.91697
1.92411
1.931
1.9376
1.94386
1.94968
1.95493
1.95943
1.96297
0.370139
0.370042
0.370032
0.37002
0.369986
0.369964
0.369939
0.369923
0.369916
0.369919
0.369944
0.37
0.3701
0.370264
0.370507
0.370852
0.371313
0.371905
0.372639
0.373521
0.374554
0.375742
0.377088
0.378593
0.380258
0.382084
0.384053
0.386158
0.388364
0.390655
0.39301
0.395415
0.397876
0.400387
0.402971
0.40563
0.408379
0.411222
0.414162
0.417191
0.420297
0.423461
0.426668
0.4299
0.433143
0.436386
0.439616
0.442819
0.445978
0.449074
0.452089
0.455004
0.457805
0.460479
0.463014
0.465398
0.467617
0.469662
0.471525
0.473199
0.474662
0.475883
0.47687
0.477685
0.478396
0.479037
0.479633
0.480198
0.480758
0.48131
0.481873
0.482438
0.483019
0.483636
0.484304
0.485067
0.485959
0.486992
0.488223
0.489629
0.491215
0.493053
0.4951
0.497418
0.500044
0.502991
0.506311
0.510014
0.514156
0.518727
0.52378
0.529302
0.535292
0.541778
0.548718
0.556151
0.564037
0.572391
0.5812
0.590439
0.600129
0.610223
0.620776
0.631721
0.643118
0.654931
0.667163
0.679837
0.692978
0.706628
0.720791
0.735485
0.750761
0.766686
0.783315
0.800695
0.818999
0.838292
0.858771
0.880735
0.904289
0.930006
0.958397
0.990323
1.02655
1.07007
1.12299
1.19411
1.28538
1.32475
1.07375
0.771686
0.764084
0.78816
0.830749
0.896374
0.993112
1.12669
1.29371
1.47377
1.63107
1.73693
1.78782
1.80703
1.81698
1.82498
1.83132
1.83669
1.84197
1.84777
1.85428
1.86141
1.86899
1.87684
1.88478
1.89268
1.90045
1.90803
1.91542
1.92261
1.92957
1.93626
1.94259
1.94844
1.95367
1.95813
0.371047
0.37093
0.370927
0.370921
0.370893
0.37088
0.370864
0.370858
0.370861
0.37088
0.370921
0.370996
0.371114
0.371293
0.37155
0.371903
0.372367
0.372957
0.373682
0.374554
0.375576
0.376754
0.378094
0.379596
0.38126
0.383086
0.385056
0.38716
0.389364
0.391651
0.393999
0.396394
0.398843
0.401339
0.403907
0.40655
0.409284
0.412113
0.415039
0.418054
0.421145
0.424296
0.427487
0.430703
0.433929
0.437153
0.440365
0.44355
0.446694
0.449776
0.45278
0.455686
0.458478
0.461144
0.46367
0.466044
0.468251
0.470283
0.472132
0.473792