/*--------------------------------*- C++ -*----------------------------------*\
  =========                 |
  \\      /  F ield         | OpenFOAM: The Open Source CFD Toolbox
   \\    /   O peration     | Website:  https://openfoam.org
    \\  /    A nd           | Version:  13
     \\/     M anipulation  |
\*---------------------------------------------------------------------------*/
FoamFile
{
    format      ascii;
    class       volScalarField;
    location    "0.0019";
    object      T;
}
// * * * * * * * * * * * * * * * * * * * * * * * * * * * * * * * * * * * * * //

dimensions      [0 0 0 1 0 0 0];

internalField   nonuniform List<scalar> 
33334
(
2405.38
2405.29
2405.08
2404.68
2404.28
2403.72
2403.05
2402.26
2401.38
2400.45
2399.52
2398.63
2397.83
2397.2
2396.81
2396.61
2396.76
2397.48
2398.68
2400.4
2402.63
2405.39
2408.65
2412.35
2416.45
2420.88
2425.58
2430.49
2435.54
2440.67
2445.81
2450.92
2455.93
2460.84
2465.6
2470.21
2474.63
2478.86
2482.9
2486.77
2490.52
2494.21
2497.91
2501.69
2505.61
2509.71
2514.05
2518.66
2523.59
2528.85
2534.45
2540.36
2546.52
2552.86
2559.27
2565.67
2571.96
2578.07
2583.9
2589.38
2594.36
2598.67
2602.32
2605.54
2608.29
2610.61
2612.56
2614.2
2615.6
2616.84
2617.96
2619.01
2620.05
2621.12
2622.27
2623.51
2624.83
2626.39
2628.3
2630.3
2633.1
2635.58
2637.78
2640.73
2644.41
2648.42
2653.07
2658.37
2664.31
2670.82
2677.97
2685.72
2694.02
2702.82
2712.1
2721.81
2731.94
2742.49
2753.39
2764.69
2776.35
2788.33
2800.68
2813.29
2826.28
2839.52
2853.04
2866.85
2880.92
2895.21
2909.75
2924.61
2939.77
2955.26
2971.09
2987.24
3003.75
3020.67
3038.06
3055.97
3074.51
3093.81
3114.02
3135.44
3158.68
3184.38
3213.43
3247.98
3288.37
3310.99
2713.96
1430.92
894.177
835.315
806.738
763.572
704.686
633.564
557.898
487.957
432.912
397.269
379.409
373.425
372.752
373.056
373.822
374.846
375.845
376.565
376.93
377.083
377.125
377.1
376.992
376.829
376.658
376.507
376.369
376.238
376.106
375.971
375.833
375.695
375.558
375.427
2405.29
2405.44
2405.08
2404.6
2404.13
2403.56
2402.89
2402.13
2401.29
2400.39
2399.48
2398.59
2397.79
2397.16
2396.76
2396.55
2396.69
2397.37
2398.55
2400.24
2402.44
2405.16
2408.37
2412.04
2416.11
2420.5
2425.16
2430.04
2435.06
2440.17
2445.29
2450.38
2455.38
2460.28
2465.04
2469.64
2474.06
2478.29
2482.33
2486.2
2489.94
2493.63
2497.33
2501.1
2505.01
2509.11
2513.44
2518.04
2522.94
2528.18
2533.75
2539.65
2545.8
2552.12
2558.54
2564.94
2571.25
2577.38
2583.25
2588.76
2593.79
2598.16
2601.85
2605.11
2607.91
2610.27
2612.25
2613.93
2615.36
2616.61
2617.74
2618.79
2619.82
2620.88
2622.02
2623.23
2624.46
2625.95
2627.78
2629.85
2632.13
2635.38
2638.27
2641.34
2645.08
2649.06
2653.69
2658.85
2664.56
2670.86
2677.74
2685.22
2693.34
2702.05
2711.25
2720.91
2731.03
2741.53
2752.43
2763.72
2775.34
2787.35
2799.65
2812.34
2825.26
2838.51
2852.11
2865.89
2879.88
2894.21
2908.87
2923.82
2939.04
2954.5
2970.25
2986.38
3002.84
3019.83
3037.32
3055.34
3074.18
3093.97
3114.94
3137.36
3161.33
3187.45
3216.66
3250.97
3289.58
3310.01
2740.07
1454.38
899.968
835.571
807.044
764.016
705.239
634.189
558.559
488.605
433.508
397.758
379.818
373.791
373.139
373.468
374.247
375.178
375.92
376.432
376.795
376.991
377.048
377.031
376.939
376.796
376.647
376.503
376.368
376.237
376.106
375.972
375.833
375.694
375.558
375.427
2405.08
2405.08
2404.84
2404.46
2403.95
2403.35
2402.66
2401.89
2401.04
2400.16
2399.27
2398.41
2397.65
2397.06
2396.68
2396.49
2396.65
2397.35
2398.53
2400.22
2402.43
2405.16
2408.39
2412.06
2416.11
2420.5
2425.16
2430.03
2435.04
2440.15
2445.26
2450.35
2455.36
2460.26
2465.03
2469.63
2474.06
2478.3
2482.35
2486.22
2489.97
2493.66
2497.36
2501.13
2505.03
2509.12
2513.44
2518.01
2522.89
2528.1
2533.64
2539.51
2545.63
2551.93
2558.33
2564.73
2571.04
2577.17
2583.04
2588.55
2593.6
2598
2601.71
2604.98
2607.79
2610.16
2612.17
2613.88
2615.35
2616.65
2617.82
2618.9
2619.95
2621.03
2622.17
2623.38
2624.73
2626.25
2628.28
2630.66
2633.15
2635.88
2639.3
2642.54
2645.8
2649.59
2654.14
2659.22
2664.87
2671.16
2678.06
2685.57
2693.67
2702.35
2711.54
2721.21
2731.33
2741.84
2752.76
2764.04
2775.68
2787.68
2799.99
2812.66
2825.59
2838.85
2852.41
2866.19
2880.21
2894.52
2909.13
2924.03
2939.22
2954.7
2970.5
2986.66
3003.18
3020.17
3037.65
3055.68
3074.45
3094.07
3114.74
3136.79
3160.74
3187.34
3217.37
3252.15
3290.93
3309.17
2717.84
1437.84
896.523
835.463
806.96
763.869
705.044
633.98
558.355
488.408
433.283
397.505
379.517
373.489
372.854
373.178
373.922
374.82
375.594
376.172
376.587
376.843
376.939
376.934
376.867
376.743
376.61
376.484
376.361
376.235
376.106
375.972
375.833
375.694
375.557
375.426
2404.68
2404.6
2404.46
2404.06
2403.57
2402.99
2402.33
2401.6
2400.79
2399.94
2399.08
2398.25
2397.52
2396.95
2396.6
2396.43
2396.6
2397.32
2398.52
2400.22
2402.44
2405.18
2408.41
2412.08
2416.13
2420.52
2425.18
2430.06
2435.08
2440.19
2445.32
2450.41
2455.43
2460.33
2465.1
2469.72
2474.15
2478.38
2482.43
2486.3
2490.05
2493.74
2497.44
2501.21
2505.12
2509.21
2513.53
2518.11
2522.99
2528.21
2533.76
2539.62
2545.75
2552.07
2558.47
2564.88
2571.2
2577.34
2583.22
2588.74
2593.8
2598.21
2601.94
2605.2
2608.01
2610.38
2612.39
2614.1
2615.6
2616.95
2618.19
2619.36
2620.5
2621.66
2622.87
2624.15
2625.53
2627.14
2629.07
2631.12
2633.39
2636.03
2639.27
2642.52
2646.01
2650.08
2654.76
2659.98
2665.74
2672.07
2679.01
2686.53
2694.6
2703.21
2712.35
2721.99
2732.1
2742.63
2753.57
2764.87
2776.53
2788.54
2800.87
2813.53
2826.47
2839.74
2853.27
2867.06
2881.09
2895.4
2909.99
2924.87
2940.04
2955.52
2971.34
2987.52
3004.08
3021.08
3038.59
3056.7
3075.48
3095.11
3115.8
3137.83
3161.78
3188.36
3218.34
3252.88
3292.16
3309
2684.13
1415.68
892.332
834.996
806.411
763.174
704.252
633.153
557.562
487.71
432.713
397.092
379.245
373.314
372.723
373.036
373.71
374.511
375.239
375.832
376.285
376.599
376.762
376.796
376.76
376.669
376.556
376.45
376.343
376.229
376.105
375.972
375.834
375.694
375.557
375.425
2404.28
2404.13
2403.95
2403.57
2403.07
2402.49
2401.83
2401.13
2400.36
2399.56
2398.75
2397.98
2397.29
2396.76
2396.45
2396.32
2396.52
2397.26
2398.48
2400.2
2402.43
2405.17
2408.4
2412.07
2416.12
2420.51
2425.17
2430.04
2435.07
2440.19
2445.33
2450.44
2455.46
2460.38
2465.15
2469.77
2474.2
2478.43
2482.47
2486.33
2490.08
2493.77
2497.48
2501.26
2505.19
2509.29
2513.63
2518.22
2523.12
2528.35
2533.91
2539.78
2545.91
2552.22
2558.63
2565.04
2571.37
2577.51
2583.4
2588.95
2594.03
2598.46
2602.23
2605.5
2608.33
2610.72
2612.75
2614.5
2616.04
2617.45
2618.77
2620.04
2621.29
2622.55
2623.84
2625.2
2626.64
2628.29
2630.1
2631.99
2634.12
2636.62
2639.59
2642.87
2646.57
2650.82
2655.59
2660.89
2666.75
2673.16
2680.16
2687.71
2695.8
2704.4
2713.52
2723.15
2733.25
2743.78
2754.73
2766.03
2777.71
2789.73
2802.08
2814.74
2827.69
2840.94
2854.45
2868.23
2882.27
2896.57
2911.14
2926.01
2941.16
2956.63
2972.44
2988.59
3005.16
3022.15
3039.65
3057.77
3076.53
3096.14
3116.86
3138.92
3162.93
3189.46
3219.34
3253.69
3293.45
3306.58
2635.89
1386.33
887.724
834.479
805.772
762.318
703.217
632.005
556.402
486.656
431.878
396.51
378.88
373.061
372.484
372.773
373.385
374.128
374.835
375.434
375.911
376.271
376.506
376.609
376.615
376.567
376.483
376.397
376.311
376.214
376.1
375.972
375.835
375.696
375.558
375.425
2403.72
2403.56
2403.35
2402.99
2402.49
2401.91
2401.28
2400.61
2399.89
2399.13
2398.38
2397.66
2397.03
2396.55
2396.29
2396.2
2396.45
2397.22
2398.48
2400.21
2402.45
2405.2
2408.43
2412.1
2416.15
2420.52
2425.17
2430.04
2435.07
2440.2
2445.34
2450.46
2455.49
2460.41
2465.19
2469.81
2474.24
2478.46
2482.5
2486.36
2490.11
2493.81
2497.53
2501.34
2505.29
2509.42
2513.78
2518.41
2523.33
2528.57
2534.13
2540
2546.12
2552.43
2558.83
2565.24
2571.57
2577.73
2583.64
2589.22
2594.33
2598.8
2602.6
2605.9
2608.75
2611.18
2613.25
2615.05
2616.66
2618.14
2619.55
2620.93
2622.27
2623.61
2624.97
2626.4
2627.89
2629.53
2631.34
2633.25
2635.34
2637.73
2640.56
2643.86
2647.61
2651.89
2656.68
2662.02
2667.94
2674.42
2681.47
2689.06
2697.16
2705.79
2714.91
2724.54
2734.63
2745.17
2756.12
2767.43
2779.12
2791.15
2803.51
2816.18
2829.13
2842.37
2855.86
2869.63
2883.67
2897.96
2912.53
2927.39
2942.52
2957.95
2973.72
2989.82
3006.34
3023.28
3040.73
3058.81
3077.53
3097.1
3117.82
3139.92
3163.92
3190.33
3220.26
3254.73
3294.76
3304.52
2578.03
1353.66
882.563
833.806
804.935
761.171
701.785
630.385
554.767
485.207
430.765
395.774
378.45
372.758
372.164
372.419
372.977
373.683
374.38
374.987
375.483
375.877
376.169
376.351
376.428
376.428
376.387
376.324
376.26
376.184
376.086
375.968
375.836
375.697
375.559
375.427
2403.05
2402.89
2402.66
2402.33
2401.83
2401.28
2400.68
2400.04
2399.36
2398.65
2397.95
2397.29
2396.72
2396.3
2396.08
2396.06
2396.35
2397.17
2398.45
2400.21
2402.47
2405.23
2408.46
2412.12
2416.16
2420.53
2425.17
2430.04
2435.07
2440.21
2445.36
2450.49
2455.53
2460.46
2465.25
2469.87
2474.31
2478.53
2482.57
2486.43
2490.18
2493.89
2497.63
2501.46
2505.43
2509.6
2513.99
2518.65
2523.59
2528.85
2534.43
2540.3
2546.42
2552.71
2559.11
2565.53
2571.86
2578.04
2583.98
2589.59
2594.73
2599.24
2603.08
2606.42
2609.29
2611.76
2613.88
2615.73
2617.39
2618.95
2620.45
2621.91
2623.36
2624.78
2626.21
2627.68
2629.21
2630.87
2632.72
2634.73
2636.89
2639.33
2642.15
2645.43
2649.15
2653.39
2658.15
2663.48
2669.4
2675.9
2682.97
2690.58
2698.71
2707.36
2716.51
2726.15
2736.24
2746.77
2757.72
2769.03
2780.72
2792.75
2805.11
2817.78
2830.74
2843.96
2857.43
2871.18
2885.2
2899.47
2914.02
2928.85
2943.95
2959.33
2975.02
2991.04
3007.46
3024.29
3041.64
3059.63
3078.32
3097.88
3118.59
3140.79
3164.92
3191.48
3221.58
3256.52
3296.51
3301.01
2507.92
1316.13
876.876
833.024
803.931
759.775
700.031
628.398
552.776
483.459
429.437
394.906
377.939
372.379
371.757
371.98
372.498
373.183
373.881
374.501
375.016
375.436
375.769
376.015
376.172
376.247
376.255
376.232
376.188
376.134
376.058
375.955
375.832
375.697
375.561
375.428
2402.26
2402.13
2401.89
2401.6
2401.13
2400.61
2400.04
2399.43
2398.78
2398.13
2397.48
2396.89
2396.39
2396.03
2395.85
2395.88
2396.25
2397.11
2398.42
2400.21
2402.49
2405.26
2408.49
2412.15
2416.18
2420.54
2425.18
2430.06
2435.09
2440.23
2445.4
2450.53
2455.58
2460.52
2465.32
2469.95
2474.39
2478.62
2482.66
2486.52
2490.28
2494
2497.76
2501.61
2505.62
2509.83
2514.25
2518.94
2523.92
2529.21
2534.8
2540.68
2546.8
2553.1
2559.5
2565.92
2572.26
2578.46
2584.42
2590.06
2595.23
2599.78
2603.67
2607.04
2609.95
2612.45
2614.6
2616.49
2618.21
2619.82
2621.39
2622.94
2624.47
2625.99
2627.49
2629.02
2630.59
2632.3
2634.21
2636.31
2638.58
2641.12
2643.98
2647.25
2650.95
2655.16
2659.9
2665.22
2671.12
2677.59
2684.65
2692.25
2700.4
2709.07
2718.23
2727.88
2737.97
2748.5
2759.44
2770.74
2782.41
2794.43
2806.78
2819.44
2832.39
2845.59
2859.04
2872.76
2886.73
2900.98
2915.49
2930.27
2945.33
2960.64
2976.25
2992.18
3008.5
3025.25
3042.54
3060.47
3079.19
3098.82
3119.58
3141.87
3166.15
3192.99
3223.29
3258.78
3298.62
3294.59
2428.45
1273.66
871.121
832.112
802.7
758.086
697.927
626.04
550.435
481.42
427.897
393.907
377.339
371.924
371.279
371.475
371.961
372.636
373.343
373.981
374.517
374.96
375.324
375.617
375.84
375.997
376.082
376.106
376.096
376.064
376.01
375.928
375.82
375.694
375.561
375.43
2401.38
2401.29
2401.04
2400.79
2400.36
2399.89
2399.36
2398.78
2398.19
2397.58
2397
2396.47
2396.04
2395.75
2395.6
2395.68
2396.14
2397.04
2398.38
2400.19
2402.49
2405.28
2408.52
2412.17
2416.2
2420.56
2425.2
2430.08
2435.13
2440.27
2445.44
2450.58
2455.64
2460.59
2465.4
2470.04
2474.49
2478.72
2482.76
2486.64
2490.41
2494.15
2497.93
2501.82
2505.87
2510.11
2514.58
2519.31
2524.32
2529.64
2535.25
2541.15
2547.28
2553.59
2559.99
2566.41
2572.76
2578.97
2584.96
2590.63
2595.84
2600.42
2604.35
2607.75
2610.7
2613.24
2615.42
2617.35
2619.1
2620.76
2622.38
2624
2625.62
2627.22
2628.82
2630.41
2632.06
2633.83
2635.8
2637.97
2640.33
2642.95
2645.86
2649.15
2652.87
2657.07
2661.82
2667.13
2673.01
2679.46
2686.49
2694.09
2702.23
2710.91
2720.08
2729.73
2739.82
2750.35
2761.28
2772.57
2784.23
2796.22
2808.55
2821.2
2834.15
2847.33
2860.76
2874.43
2888.35
2902.55
2917
2931.72
2946.71
2961.97
2977.52
2993.4
3009.66
3026.39
3043.67
3061.59
3080.33
3100.05
3120.91
3143.29
3167.68
3194.79
3225.41
3261.14
3301.5
3284.69
2337.39
1228.37
865.641
831.035
801.241
756.11
695.486
623.331
547.766
479.111
426.163
392.78
376.648
371.397
370.741
370.915
371.379
372.052
372.773
373.431
373.989
374.454
374.844
375.172
375.446
375.67
375.839
375.94
375.975
375.971
375.942
375.882
375.793
375.682
375.558
375.431
2400.45
2400.39
2400.16
2399.94
2399.56
2399.13
2398.65
2398.13
2397.58
2397.04
2396.52
2396.05
2395.69
2395.47
2395.36
2395.49
2396.03
2396.97
2398.35
2400.19
2402.51
2405.31
2408.56
2412.22
2416.25
2420.61
2425.25
2430.13
2435.18
2440.33
2445.51
2450.66
2455.73
2460.68
2465.5
2470.15
2474.6
2478.85
2482.91
2486.8
2490.6
2494.37
2498.18
2502.1
2506.19
2510.47
2514.98
2519.75
2524.8
2530.14
2535.78
2541.7
2547.85
2554.16
2560.57
2567
2573.37
2579.6
2585.61
2591.3
2596.54
2601.16
2605.13
2608.57
2611.55
2614.12
2616.35
2618.31
2620.09
2621.78
2623.44
2625.12
2626.81
2628.5
2630.19
2631.88
2633.61
2635.46
2637.48
2639.71
2642.13
2644.81
2647.76
2651.1
2654.85
2659.08
2663.84
2669.15
2675.03
2681.47
2688.49
2696.08
2704.23
2712.91
2722.08
2731.73
2741.83
2752.35
2763.27
2774.55
2786.2
2798.18
2810.49
2823.12
2836.06
2849.23
2862.64
2876.27
2890.15
2904.3
2918.69
2933.34
2948.28
2963.5
2979.03
2994.89
3011.14
3027.88
3045.21
3063.15
3081.92
3101.68
3122.61
3145.1
3169.55
3196.79
3227.82
3263.74
3304.22
3271.5
2237.62
1181.92
860.596
829.81
799.559
753.85
692.718
620.284
544.78
476.542
424.243
391.532
375.872
370.806
370.154
370.314
370.765
371.44
372.176
372.855
373.434
373.92
374.334
374.691
375.005
375.28
375.518
375.704
375.815
375.854
375.849
375.815
375.749
375.657
375.547
375.428
2399.52
2399.48
2399.27
2399.08
2398.75
2398.38
2397.95
2397.48
2397
2396.52
2396.06
2395.66
2395.36
2395.2
2395.15
2395.34
2395.94
2396.93
2398.34
2400.21
2402.56
2405.38
2408.64
2412.3
2416.33
2420.69
2425.33
2430.22
2435.28
2440.43
2445.62
2450.77
2455.85
2460.81
2465.63
2470.29
2474.76
2479.03
2483.11
2487.04
2490.87
2494.67
2498.52
2502.48
2506.6
2510.92
2515.47
2520.27
2525.36
2530.73
2536.4
2542.34
2548.5
2554.83
2561.25
2567.69
2574.08
2580.33
2586.36
2592.08
2597.35
2602
2606.01
2609.49
2612.51
2615.12
2617.39
2619.38
2621.19
2622.91
2624.6
2626.32
2628.07
2629.84
2631.63
2633.42
2635.26
2637.19
2639.28
2641.55
2644.01
2646.73
2649.73
2653.11
2656.89
2661.16
2665.94
2671.26
2677.15
2683.61
2690.65
2698.25
2706.4
2715.08
2724.26
2733.92
2744.01
2754.53
2765.45
2776.74
2788.37
2800.34
2812.64
2825.26
2838.18
2851.35
2864.75
2878.36
2892.21
2906.32
2920.67
2935.28
2950.19
2965.4
2980.92
2996.8
3013.07
3029.85
3047.23
3065.2
3083.96
3103.72
3124.68
3147.22
3171.78
3199.12
3230.4
3266.9
3306.44
3251.97
2132.89
1132.43
856.093
828.47
797.652
751.309
689.633
616.909
541.487
473.725
422.149
390.175
375.021
370.161
369.531
369.683
370.129
370.808
371.558
372.255
372.854
373.36
373.796
374.179
374.525
374.842
375.133
375.389
375.585
375.698
375.734
375.725
375.684
375.614
375.522
375.416
2398.63
2398.59
2398.41
2398.25
2397.98
2397.66
2397.29
2396.89
2396.47
2396.05
2395.66
2395.32
2395.08
2394.97
2394.99
2395.26
2395.9
2396.94
2398.39
2400.29
2402.67
2405.5
2408.77
2412.44
2416.47
2420.83
2425.49
2430.38
2435.44
2440.6
2445.79
2450.94
2456.03
2460.99
2465.83
2470.51
2475
2479.3
2483.41
2487.37
2491.24
2495.08
2498.96
2502.96
2507.12
2511.48
2516.06
2520.9
2526.02
2531.42
2537.11
2543.07
2549.25
2555.6
2562.04
2568.5
2574.9
2581.17
2587.23
2592.97
2598.26
2602.95
2607
2610.52
2613.58
2616.24
2618.55
2620.58
2622.43
2624.17
2625.88
2627.62
2629.42
2631.26
2633.14
2635.04
2636.99
2639.03
2641.19
2643.52
2646.03
2648.78
2651.82
2655.23
2659.05
2663.34
2668.15
2673.49
2679.4
2685.88
2692.94
2700.56
2708.73
2717.42
2726.62
2736.28
2746.39
2756.91
2767.83
2779.12
2790.75
2802.73
2815.02
2827.63
2840.55
2853.72
2867.13
2880.75
2894.59
2908.69
2923.03
2937.64
2952.54
2967.75
2983.28
2999.18
3015.48
3032.28
3049.66
3067.64
3086.39
3106.12
3127.07
3149.67
3174.3
3201.8
3233.39
3270.13
3309.54
3221.6
2023.34
1082.17
852.228
826.974
795.517
748.494
686.234
613.208
537.898
470.673
419.896
388.721
374.106
369.474
368.88
369.03
369.476
370.161
370.923
371.635
372.251
372.776
373.231
373.638
374.012
374.364
374.698
375.008
375.277
375.475
375.583
375.611
375.598
375.551
375.48
375.392
2397.83
2397.79
2397.65
2397.52
2397.29
2397.03
2396.72
2396.39
2396.04
2395.69
2395.36
2395.08
2394.9
2394.82
2394.89
2395.25
2395.94
2397.02
2398.52
2400.46
2402.86
2405.72
2408.99
2412.66
2416.69
2421.06
2425.71
2430.61
2435.67
2440.84
2446.03
2451.19
2456.29
2461.27
2466.13
2470.83
2475.36
2479.69
2483.85
2487.85
2491.75
2495.62
2499.54
2503.57
2507.76
2512.16
2516.78
2521.66
2526.8
2532.23
2537.94
2543.91
2550.11
2556.48
2562.93
2569.41
2575.84
2582.13
2588.2
2593.97
2599.29
2604.02
2608.12
2611.68
2614.79
2617.49
2619.85
2621.93
2623.81
2625.57
2627.3
2629.05
2630.88
2632.77
2634.72
2636.73
2638.8
2640.95
2643.21
2645.62
2648.18
2650.99
2654.07
2657.52
2661.37
2665.69
2670.51
2675.87
2681.8
2688.3
2695.38
2703.02
2711.21
2719.93
2729.14
2738.83
2748.95
2759.48
2770.41
2781.7
2793.35
2805.34
2817.65
2830.28
2843.2
2856.38
2869.8
2883.45
2897.31
2911.42
2925.79
2940.43
2955.35
2970.56
2986.09
3001.99
3018.32
3035.11
3052.43
3070.39
3089.12
3108.84
3129.78
3152.36
3177.17
3204.85
3236.75
3273.82
3312.03
3177.48
1912.04
1034.44
848.887
825.325
793.155
745.399
682.521
609.187
534.024
467.405
417.505
387.188
373.143
368.756
368.21
368.362
368.811
369.503
370.275
370.999
371.628
372.168
372.642
373.07
373.469
373.851
374.221
374.576
374.9
375.172
375.365
375.464
375.485
375.467
375.419
375.351
2397.2
2397.16
2397.06
2396.95
2396.76
2396.55
2396.3
2396.03
2395.75
2395.47
2395.2
2394.97
2394.82
2394.78
2394.91
2395.34
2396.11
2397.24
2398.79
2400.76
2403.19
2406.06
2409.34
2413.01
2417.04
2421.41
2426.07
2430.97
2436.04
2441.2
2446.41
2451.58
2456.69
2461.69
2466.57
2471.31
2475.87
2480.24
2484.44
2488.48
2492.42
2496.33
2500.28
2504.34
2508.56
2512.98
2517.64
2522.54
2527.71
2533.15
2538.88
2544.87
2551.09
2557.47
2563.95
2570.45
2576.89
2583.2
2589.3
2595.1
2600.46
2605.23
2609.38
2612.99
2616.14
2618.89
2621.3
2623.42
2625.34
2627.14
2628.89
2630.64
2632.47
2634.38
2636.39
2638.48
2640.66
2642.93
2645.3
2647.82
2650.47
2653.35
2656.49
2659.98
2663.87
2668.22
2673.07
2678.44
2684.38
2690.9
2698
2705.66
2713.87
2722.6
2731.84
2741.54
2751.69
2762.24
2773.19
2784.51
2796.19
2808.21
2820.55
2833.2
2846.14
2859.34
2872.8
2886.47
2900.38
2914.52
2928.91
2943.59
2958.53
2973.75
2989.26
3005.14
3021.46
3038.21
3055.48
3073.38
3092.11
3111.84
3132.78
3155.43
3180.31
3208.33
3240.57
3278.16
3314
3111.51
1797.31
990.647
846.08
823.473
790.571
742.022
678.496
604.855
529.881
463.941
414.998
385.595
372.146
368.018
367.527
367.683
368.137
368.836
369.616
370.349
370.988
371.541
372.029
372.476
372.898
373.307
373.709
374.1
374.47
374.8
375.068
375.252
375.34
375.357
375.338
375.291
2396.81
2396.76
2396.68
2396.6
2396.45
2396.29
2396.08
2395.85
2395.6
2395.36
2395.15
2394.99
2394.89
2394.91
2395.14
2395.65
2396.48
2397.66
2399.24
2401.25
2403.7
2406.57
2409.85
2413.52
2417.56
2421.93
2426.59
2431.5
2436.57
2441.75
2446.96
2452.14
2457.27
2462.29
2467.21
2471.97
2476.57
2480.99
2485.23
2489.31
2493.29
2497.23
2501.21
2505.29
2509.55
2514
2518.67
2523.6
2528.78
2534.24
2539.98
2545.99
2552.22
2558.61
2565.11
2571.63
2578.09
2584.43
2590.56
2596.38
2601.78
2606.59
2610.79
2614.45
2617.65
2620.44
2622.89
2625.06
2627.02
2628.85
2630.63
2632.41
2634.24
2636.14
2638.17
2640.3
2642.57
2644.95
2647.44
2650.07
2652.83
2655.82
2659.04
2662.6
2666.54
2670.93
2675.81
2681.21
2687.16
2693.69
2700.8
2708.48
2716.71
2725.46
2734.72
2744.46
2754.63
2765.21
2776.19
2787.55
2799.27
2811.33
2823.73
2836.42
2849.39
2862.63
2876.11
2889.82
2903.77
2917.93
2932.36
2947.05
2961.99
2977.21
2992.69
3008.53
3024.81
3041.53
3058.74
3076.61
3095.33
3115.08
3136.11
3158.75
3183.86
3212.13
3244.8
3282.56
3315.64
3016.52
1679.59
952.424
843.58
821.461
787.743
738.366
674.167
600.229
525.494
460.308
412.399
383.96
371.13
367.268
366.834
366.995
367.456
368.161
368.947
369.687
370.334
370.895
371.396
371.859
372.302
372.735
373.165
373.589
373.997
374.373
374.7
374.959
375.133
375.216
375.231
375.212
2396.61
2396.55
2396.49
2396.43
2396.32
2396.2
2396.06
2395.88
2395.68
2395.49
2395.34
2395.26
2395.25
2395.34
2395.65
2396.22
2397.1
2398.32
2399.94
2401.97
2404.43
2407.3
2410.59
2414.25
2418.28
2422.65
2427.32
2432.23
2437.32
2442.51
2447.73
2452.93
2458.08
2463.13
2468.07
2472.87
2477.5
2481.96
2486.23
2490.35
2494.37
2498.34
2502.35
2506.47
2510.74
2515.22
2519.92
2524.87
2530.07
2535.54
2541.28
2547.3
2553.53
2559.94
2566.45
2572.98
2579.46
2585.82
2591.97
2597.82
2603.25
2608.11
2612.36
2616.06
2619.3
2622.14
2624.63
2626.84
2628.85
2630.73
2632.54
2634.34
2636.18
2638.09
2640.11
2642.25
2644.56
2647.01
2649.61
2652.36
2655.24
2658.34
2661.67
2665.32
2669.34
2673.79
2678.71
2684.15
2690.13
2696.68
2703.81
2711.5
2719.75
2728.53
2737.81
2747.58
2757.78
2768.4
2779.42
2790.82
2802.6
2814.71
2827.16
2839.9
2852.92
2866.2
2879.72
2893.46
2907.43
2921.62
2936.05
2950.73
2965.65
2980.84
2996.29
3012.1
3028.33
3045.02
3062.22
3080.08
3098.78
3118.6
3139.69
3162.53
3187.79
3216.37
3249.4
3287.88
3314.85
2884.43
1559.25
921.094
841.331
819.231
784.692
734.427
669.543
595.33
520.892
456.54
409.735
382.302
370.106
366.513
366.135
366.301
366.769
367.48
368.27
369.014
369.666
370.234
370.745
371.221
371.682
372.137
372.591
373.044
373.485
373.901
374.276
374.596
374.846
375.013
375.093
375.109
2396.76
2396.69
2396.65
2396.6
2396.52
2396.45
2396.35
2396.25
2396.14
2396.03
2395.94
2395.9
2395.94
2396.11
2396.48
2397.1
2398.02
2399.28
2400.92
2402.97
2405.43
2408.3
2411.57
2415.22
2419.25
2423.62
2428.29
2433.22
2438.32
2443.52
2448.76
2453.98
2459.15
2464.22
2469.19
2474.02
2478.69
2483.17
2487.49
2491.64
2495.69
2499.69
2503.73
2507.87
2512.17
2516.67
2521.39
2526.35
2531.56
2537.03
2542.78
2548.79
2555.03
2561.45
2567.96
2574.51
2581.01
2587.38
2593.55
2599.43
2604.89
2609.8
2614.1
2617.85
2621.13
2624.01
2626.54
2628.8
2630.86
2632.78
2634.63
2636.45
2638.3
2640.21
2642.22
2644.36
2646.68
2649.17
2651.84
2654.69
2657.68
2660.9
2664.34
2668.09
2672.21
2676.73
2681.73
2687.22
2693.25
2699.83
2706.98
2714.71
2722.98
2731.79
2741.1
2750.89
2761.13
2771.8
2782.87
2794.33
2806.16
2818.33
2830.83
2843.63
2856.7
2870.03
2883.57
2897.33
2911.31
2925.5
2939.93
2954.57
2969.45
2984.61
3000.04
3015.82
3032.01
3048.71
3065.94
3083.8
3102.56
3122.44
3143.65
3166.66
3192.13
3221.07
3254.53
3293.23
3311.45
2715.52
1439.18
896.34
839.156
816.836
781.395
730.217
664.639
590.179
516.104
452.664
407.029
380.636
369.082
365.755
365.43
365.602
366.077
366.792
367.586
368.333
368.988
369.56
370.077
370.564
371.039
371.513
371.99
372.469
372.939
373.389
373.805
374.174
374.487
374.731
374.894
374.974
2397.48
2397.37
2397.35
2397.32
2397.26
2397.22
2397.17
2397.11
2397.04
2396.97
2396.93
2396.94
2397.02
2397.24
2397.66
2398.32
2399.28
2400.57
2402.22
2404.28
2406.73
2409.59
2412.85
2416.5
2420.52
2424.89
2429.57
2434.51
2439.61
2444.83
2450.09
2455.33
2460.52
2465.61
2470.61
2475.46
2480.15
2484.67
2489.02
2493.2
2497.28
2501.31
2505.37
2509.53
2513.85
2518.37
2523.1
2528.07
2533.28
2538.76
2544.5
2550.51
2556.74
2563.16
2569.68
2576.23
2582.75
2589.14
2595.33
2601.24
2606.73
2611.68
2616.02
2619.82
2623.14
2626.05
2628.62
2630.92
2633.03
2634.99
2636.89
2638.75
2640.61
2642.52
2644.52
2646.66
2648.98
2651.47
2654.18
2657.09
2660.16
2663.49
2667.03
2670.89
2675.11
2679.72
2684.8
2690.36
2696.45
2703.07
2710.27
2718.04
2726.34
2735.19
2744.53
2754.37
2764.65
2775.36
2786.49
2798
2809.89
2822.12
2834.67
2847.51
2860.63
2874
2887.57
2901.34
2915.33
2929.52
2943.93
2958.53
2973.38
2988.52
3003.94
3019.72
3035.91
3052.64
3069.89
3087.84
3106.69
3126.61
3148
3171.22
3197
3226.14
3260.19
3299.6
3302.29
2517.14
1323.51
877.451
837.026
814.254
777.86
725.752
659.481
584.809
511.162
448.709
404.301
378.974
368.065
364.998
364.723
364.9
365.38
366.1
366.895
367.643
368.299
368.874
369.395
369.89
370.378
370.868
371.365
371.866
372.362
372.842
373.293
373.704
374.068
374.375
374.617
374.78
2398.68
2398.55
2398.53
2398.52
2398.48
2398.48
2398.45
2398.42
2398.38
2398.35
2398.34
2398.39
2398.52
2398.79
2399.24
2399.94
2400.92
2402.22
2403.89
2405.93
2408.37
2411.22
2414.46
2418.1
2422.12
2426.5
2431.18
2436.13
2441.25
2446.48
2451.75
2457.01
2462.22
2467.33
2472.34
2477.22
2481.93
2486.48
2490.85
2495.06
2499.16
2503.22
2507.29
2511.47
2515.8
2520.32
2525.06
2530.03
2535.25
2540.72
2546.46
2552.45
2558.68
2565.1
2571.62
2578.19
2584.72
2591.13
2597.34
2603.28
2608.8
2613.78
2618.16
2621.99
2625.35
2628.3
2630.91
2633.24
2635.39
2637.41
2639.35
2641.25
2643.13
2645.06
2647.05
2649.17
2651.48
2653.96
2656.68
2659.61
2662.74
2666.14
2669.78
2673.72
2678.03
2682.72
2687.88
2693.51
2699.67
2706.35
2713.61
2721.42
2729.76
2738.65
2748.03
2757.91
2768.24
2779.01
2790.2
2801.77
2813.72
2826
2838.61
2851.5
2864.67
2878.07
2891.67
2905.46
2919.44
2933.63
2948.04
2962.63
2977.48
2992.61
3008.06
3023.85
3040.08
3056.86
3074.15
3092.24
3111.14
3131.21
3152.74
3176.21
3202.19
3231.8
3266.73
3306.16
3281.13
2309.11
1216.49
863.802
834.874
811.493
774.104
721.052
654.094
579.251
506.098
444.702
401.569
377.326
367.058
364.242
364.013
364.195
364.681
365.403
366.199
366.947
367.602
368.177
368.701
369.202
369.699
370.202
370.716
371.237
371.756
372.263
372.745
373.192
373.599
373.959
374.265
374.507
2400.4
2400.24
2400.22
2400.22
2400.2
2400.21
2400.21
2400.21
2400.19
2400.19
2400.21
2400.29
2400.46
2400.76
2401.25
2401.97
2402.97
2404.28
2405.93
2407.96
2410.39
2413.21
2416.45
2420.08
2424.09
2428.47
2433.16
2438.12
2443.25
2448.5
2453.78
2459.05
2464.27
2469.4
2474.43
2479.32
2484.06
2488.62
2493.01
2497.24
2501.36
2505.43
2509.52
2513.7
2518.03
2522.56
2527.3
2532.26
2537.47
2542.94
2548.67
2554.65
2560.88
2567.29
2573.82
2580.4
2586.94
2593.37
2599.61
2605.57
2611.11
2616.12
2620.54
2624.4
2627.79
2630.76
2633.4
2635.78
2637.97
2640.02
2642.01
2643.95
2645.87
2647.83
2649.83
2651.95
2654.23
2656.68
2659.4
2662.32
2665.47
2668.92
2672.61
2676.62
2681
2685.76
2690.98
2696.67
2702.89
2709.62
2716.93
2724.79
2733.17
2742.11
2751.53
2761.47
2771.85
2782.69
2793.95
2805.59
2817.61
2829.95
2842.64
2855.58
2868.8
2882.24
2895.87
2909.68
2923.68
2937.89
2952.31
2966.94
2981.81
2996.97
3012.45
3028.29
3044.6
3061.4
3078.79
3096.97
3115.96
3136.17
3157.87
3181.63
3207.8
3238.21
3273.39
3311.42
3244.5
2104.37
1118.72
854.748
832.67
808.542
770.149
716.14
648.505
573.532
500.936
440.661
398.847
375.698
366.064
363.49
363.302
363.488
363.979
364.703
365.498
366.244
366.897
367.47
367.995
368.5
369.004
369.518
370.046
370.584
371.124
371.654
372.163
372.643
373.087
373.492
373.851
374.159
2402.63
2402.44
2402.43
2402.44
2402.43
2402.45
2402.47
2402.49
2402.49
2402.51
2402.56
2402.67
2402.86
2403.19
2403.7
2404.43
2405.43
2406.73
2408.37
2410.39
2412.79
2415.6
2418.82
2422.45
2426.47
2430.85
2435.55
2440.51
2445.64
2450.9
2456.19
2461.47
2466.71
2471.85
2476.89
2481.79
2486.54
2491.12
2495.52
2499.76
2503.88
2507.95
2512.04
2516.22
2520.54
2525.06
2529.79
2534.75
2539.96
2545.42
2551.14
2557.12
2563.34
2569.75
2576.3
2582.89
2589.45
2595.91
2602.17
2608.14
2613.71
2618.74
2623.18
2627.07
2630.48
2633.49
2636.16
2638.56
2640.78
2642.88
2644.91
2646.89
2648.86
2650.85
2652.88
2655.01
2657.27
2659.7
2662.39
2665.27
2668.41
2671.87
2675.58
2679.63
2684.05
2688.86
2694.12
2699.86
2706.12
2712.89
2720.25
2728.14
2736.57
2745.56
2755.03
2765.04
2775.5
2786.43
2797.78
2809.51
2821.63
2834.04
2846.82
2859.81
2873.09
2886.57
2900.24
2914.09
2928.12
2942.37
2956.82
2971.52
2986.43
3001.66
3017.19
3033.09
3049.47
3066.3
3083.82
3102.01
3121.15
3141.45
3163.43
3187.2
3214.04
3244.99
3280.45
3316.94
3174.03
1910.29
1032.31
848.902
830.463
805.431
766.018
711.041
642.745
567.681
495.703
436.607
396.146
374.096
365.085
362.742
362.591
362.782
363.277
364.001
364.793
365.535
366.185
366.755
367.279
367.786
368.296
368.818
369.358
369.91
370.467
371.017
371.551
372.058
372.536
372.979
373.385
373.747
2405.39
2405.16
2405.16
2405.18
2405.17
2405.2
2405.23
2405.26
2405.28
2405.31
2405.38
2405.5
2405.72
2406.06
2406.57
2407.3
2408.3
2409.59
2411.22
2413.21
2415.6
2418.4
2421.62
2425.24
2429.26
2433.64
2438.34
2443.3
2448.44
2453.7
2459
2464.28
2469.53
2474.68
2479.72
2484.63
2489.39
2493.97
2498.37
2502.61
2506.73
2510.79
2514.87
2519.03
2523.34
2527.84
2532.57
2537.53
2542.73
2548.18
2553.9
2559.87
2566.09
2572.52
2579.07
2585.69
2592.27
2598.74
2605.02
2611.01
2616.59
2621.63
2626.1
2630.01
2633.45
2636.48
2639.17
2641.61
2643.86
2645.98
2648.05
2650.07
2652.08
2654.12
2656.19
2658.35
2660.61
2663.05
2665.7
2668.54
2671.64
2675.07
2678.76
2682.82
2687.26
2692.08
2697.36
2703.12
2709.41
2716.22
2723.62
2731.55
2740.05
2749.1
2758.66
2768.76
2779.32
2790.36
2801.81
2813.65
2825.87
2838.39
2851.26
2864.32
2877.66
2891.16
2904.87
2918.76
2932.85
2947.16
2961.66
2976.44
2991.4
3006.72
3022.28
3038.29
3054.69
3071.6
3089.15
3107.41
3126.68
3147.06
3169.24
3193.22
3220.74
3251.83
3288.32
3320.56
3050.48
1722.45
963.655
845.03
828.164
802.199
761.739
705.784
636.831
561.713
490.413
432.552
393.475
372.525
364.124
362
361.882
362.076
362.575
363.297
364.085
364.822
365.466
366.033
366.554
367.062
367.575
368.104
368.652
369.216
369.788
370.355
370.909
371.442
371.949
372.427
372.872
373.282
2408.65
2408.37
2408.39
2408.41
2408.4
2408.43
2408.46
2408.49
2408.52
2408.56
2408.64
2408.77
2408.99
2409.34
2409.85
2410.59
2411.57
2412.85
2414.46
2416.45
2418.82
2421.62
2424.83
2428.45
2432.47
2436.85
2441.54
2446.5
2451.64
2456.89
2462.19
2467.48
2472.72
2477.87
2482.92
2487.83
2492.58
2497.16
2501.55
2505.78
2509.89
2513.93
2517.98
2522.12
2526.41
2530.9
2535.61
2540.57
2545.76
2551.22
2556.93
2562.91
2569.14
2575.57
2582.15
2588.78
2595.39
2601.89
2608.18
2614.19
2619.78
2624.84
2629.33
2633.26