/*--------------------------------*- C++ -*----------------------------------*\
  =========                 |
  \\      /  F ield         | OpenFOAM: The Open Source CFD Toolbox
   \\    /   O peration     | Website:  https://openfoam.org
    \\  /    A nd           | Version:  13
     \\/     M anipulation  |
\*---------------------------------------------------------------------------*/
FoamFile
{
    format      ascii;
    class       volScalarField;
    location    "0.0016";
    object      CH4;
}
// * * * * * * * * * * * * * * * * * * * * * * * * * * * * * * * * * * * * * //

dimensions      [];

internalField   nonuniform List<scalar> 
33334
(
7.87346e-29
8.11304e-29
9.123e-29
1.17278e-28
1.73119e-28
2.86811e-28
5.23769e-28
1.05129e-27
2.33025e-27
5.69551e-27
1.52358e-26
4.40014e-26
1.35032e-25
4.3345e-25
1.4353e-24
4.84504e-24
1.6498e-23
5.61767e-23
1.89896e-22
6.33755e-22
2.0809e-21
6.70977e-21
2.12316e-20
6.59317e-20
2.0105e-19
6.02366e-19
1.77177e-18
5.09715e-18
1.42411e-17
3.82963e-17
9.82936e-17
2.39435e-16
5.52291e-16
1.2069e-15
2.50344e-15
4.94011e-15
9.29343e-15
1.67013e-14
2.87392e-14
4.74854e-14
7.55816e-14
1.16313e-13
1.73734e-13
2.52808e-13
3.59275e-13
4.99417e-13
6.79039e-13
9.0074e-13
1.15952e-12
1.44153e-12
1.73121e-12
2.02534e-12
2.34235e-12
2.72192e-12
3.22493e-12
3.95039e-12
5.08174e-12
6.99219e-12
1.04792e-11
1.73809e-11
3.23923e-11
6.87192e-11
1.67813e-10
4.81957e-10
1.67248e-09
7.13199e-09
3.83165e-08
2.7066e-07
2.62133e-06
3.80104e-05
0.000940903
0.0187536
0.0438156
0.0478327
0.0479271
0.0479817
0.0480385
0.0480942
0.048148
0.0482
0.0482504
0.0482992
0.0483466
0.0483926
0.0484373
0.0484807
0.048523
0.0485642
0.0486043
0.0486434
0.0486815
0.0487187
0.048755
0.0487905
0.0488252
0.0488591
0.0488923
0.0489248
0.0489565
0.0489877
0.0490181
0.049048
0.0490772
0.0491059
0.0491341
0.0491617
0.0491887
0.0492153
0.0492414
0.049267
0.0492922
0.0493169
0.0493412
0.0493652
0.0493887
0.049412
0.0494349
0.0494573
0.0494792
0.0495002
0.0495203
0.0495401
0.0495604
0.0495831
0.0496106
0.0496462
0.0496927
0.0497506
0.0498158
0.0498797
0.0499327
0.0499691
0.049989
0.0499973
0.0499996
0.05
0.05
0.05
0.05
0.05
0.05
0.05
0.05
0.05
0.05
0.05
0.05
0.05
0.05
0.05
0.05
0.05
0.05
0.05
0.05
0.05
0.05
0.05
0.05
0.05
0.05
0.05
0.05
0.05
0.05
0.05
8.11304e-29
8.3596e-29
9.40017e-29
1.20826e-28
1.78311e-28
2.95415e-28
5.39563e-28
1.08219e-27
2.3902e-27
5.81457e-27
1.54759e-26
4.44958e-26
1.36036e-25
4.35324e-25
1.43765e-24
4.84085e-24
1.64475e-23
5.58909e-23
1.88562e-22
6.28103e-22
2.05838e-21
6.62434e-21
2.09214e-20
6.48496e-20
1.9741e-19
5.90563e-19
1.73514e-18
4.98879e-18
1.39366e-17
3.74917e-17
9.63143e-17
2.34911e-16
5.42645e-16
1.18769e-15
2.46786e-15
4.87935e-15
9.19793e-15
1.65611e-14
2.85442e-14
4.72238e-14
7.5239e-14
1.15872e-13
1.732e-13
2.52186e-13
3.58623e-13
4.98902e-13
6.7877e-13
9.00741e-13
1.16001e-12
1.44286e-12
1.73331e-12
2.02788e-12
2.34378e-12
2.72026e-12
3.217e-12
3.93052e-12
5.03844e-12
6.89962e-12
1.02782e-11
1.69192e-11
3.12522e-11
6.56627e-11
1.58638e-10
4.51029e-10
1.55447e-09
6.5975e-09
3.54043e-08
2.51469e-07
2.45943e-06
3.6272e-05
0.000906079
0.0184078
0.0436856
0.0478308
0.0479278
0.0479823
0.0480391
0.0480948
0.0481485
0.0482004
0.0482507
0.0482995
0.0483468
0.0483927
0.0484373
0.0484808
0.0485231
0.0485642
0.0486043
0.0486434
0.0486815
0.0487187
0.0487551
0.0487906
0.0488252
0.0488592
0.0488923
0.0489248
0.0489566
0.0489877
0.0490181
0.049048
0.0490773
0.0491059
0.0491341
0.0491617
0.0491887
0.0492153
0.0492414
0.049267
0.0492922
0.0493169
0.0493412
0.0493652
0.0493887
0.049412
0.0494349
0.0494573
0.0494792
0.0495002
0.0495203
0.0495401
0.0495604
0.0495831
0.0496106
0.0496462
0.0496927
0.0497506
0.0498158
0.0498797
0.0499327
0.0499691
0.049989
0.0499973
0.0499996
0.05
0.05
0.05
0.05
0.05
0.05
0.05
0.05
0.05
0.05
0.05
0.05
0.05
0.05
0.05
0.05
0.05
0.05
0.05
0.05
0.05
0.05
0.05
0.05
0.05
0.05
0.05
0.05
0.05
0.05
0.05
9.123e-29
9.40017e-29
1.05685e-28
1.35764e-28
2.00166e-28
3.31417e-28
6.05625e-28
1.21421e-27
2.67161e-27
6.45937e-27
1.70648e-26
4.86827e-26
1.47726e-25
4.69469e-25
1.54036e-24
5.15427e-24
1.74112e-23
5.88445e-23
1.97522e-22
6.54964e-22
2.13815e-21
6.85998e-21
2.16167e-20
6.69035e-20
2.03497e-19
6.08685e-19
1.78894e-18
5.14593e-18
1.43835e-17
3.87206e-17
9.9543e-17
2.42921e-16
5.61328e-16
1.22885e-15
2.5544e-15
5.05511e-15
9.54543e-15
1.72289e-14
2.97797e-14
4.94123e-14
7.89545e-14
1.21935e-13
1.82749e-13
2.66751e-13
3.80201e-13
5.29898e-13
7.21884e-13
9.58589e-13
1.23428e-12
1.5333e-12
1.83783e-12
2.14342e-12
2.4682e-12
2.85358e-12
3.36181e-12
4.09155e-12
5.22416e-12
7.12569e-12
1.0575e-11
1.73588e-11
3.20157e-11
6.72528e-11
1.62778e-10
4.6378e-10
1.60377e-09
6.86298e-09
3.7307e-08
2.69273e-07
2.71796e-06
4.09841e-05
0.0010287
0.0195665
0.0440602
0.0478389
0.0479289
0.0479835
0.0480402
0.0480958
0.0481494
0.0482012
0.0482514
0.0483001
0.0483474
0.0483933
0.0484379
0.0484813
0.0485236
0.0485647
0.0486048
0.0486438
0.0486819
0.0487191
0.0487555
0.0487909
0.0488256
0.0488595
0.0488926
0.0489251
0.0489568
0.0489879
0.0490184
0.0490482
0.0490775
0.0491062
0.0491343
0.0491619
0.049189
0.0492155
0.0492416
0.0492672
0.0492924
0.0493171
0.0493414
0.0493653
0.0493889
0.0494121
0.049435
0.0494575
0.0494793
0.0495003
0.0495204
0.0495402
0.0495605
0.0495831
0.0496106
0.0496462
0.0496926
0.0497505
0.0498157
0.0498796
0.0499326
0.049969
0.049989
0.0499973
0.0499996
0.05
0.05
0.05
0.05
0.05
0.05
0.05
0.05
0.05
0.05
0.05
0.05
0.05
0.05
0.05
0.05
0.05
0.05
0.05
0.05
0.05
0.05
0.05
0.05
0.05
0.05
0.05
0.05
0.05
0.05
0.05
1.17278e-28
1.20826e-28
1.35764e-28
1.74155e-28
2.56195e-28
4.23037e-28
7.70975e-28
1.54147e-27
3.37891e-27
8.11966e-27
2.12789e-26
6.01515e-26
1.80811e-25
5.69312e-25
1.85156e-24
6.14374e-24
2.0579e-23
6.89542e-23
2.29464e-22
7.54639e-22
2.44564e-21
7.80017e-21
2.44716e-20
7.55201e-20
2.29343e-19
6.85598e-19
2.015e-18
5.79756e-18
1.62102e-17
4.36497e-17
1.12219e-16
2.73814e-16
6.32715e-16
1.38606e-15
2.88661e-15
5.73207e-15
1.08772e-14
1.97525e-14
3.43677e-14
5.74096e-14
9.235e-14
1.43554e-13
2.16473e-13
3.17738e-13
4.55044e-13
6.36518e-13
8.69189e-13
1.15504e-12
1.48502e-12
1.83776e-12
2.19057e-12
2.53769e-12
2.90166e-12
3.33106e-12
3.89775e-12
4.71362e-12
5.98319e-12
8.1186e-12
1.19968e-11
1.96426e-11
3.62015e-11
7.60524e-11
1.84467e-10
5.26559e-10
1.82255e-09
7.83855e-09
4.28689e-08
3.10613e-07
3.16121e-06
4.82677e-05
0.00122123
0.0213997
0.0446107
0.0478501
0.0479305
0.0479851
0.0480418
0.0480973
0.0481508
0.0482025
0.0482527
0.0483013
0.0483486
0.0483944
0.048439
0.0484824
0.0485246
0.0485657
0.0486057
0.0486447
0.0486828
0.0487199
0.0487562
0.0487917
0.0488263
0.0488602
0.0488933
0.0489257
0.0489574
0.0489885
0.049019
0.0490488
0.049078
0.0491067
0.0491348
0.0491623
0.0491894
0.0492159
0.049242
0.0492676
0.0492927
0.0493174
0.0493417
0.0493656
0.0493891
0.0494124
0.0494353
0.0494577
0.0494795
0.0495005
0.0495206
0.0495404
0.0495607
0.0495833
0.0496107
0.0496463
0.0496927
0.0497506
0.0498157
0.0498796
0.0499326
0.049969
0.049989
0.0499973
0.0499996
0.05
0.05
0.05
0.05
0.05
0.05
0.05
0.05
0.05
0.05
0.05
0.05
0.05
0.05
0.05
0.05
0.05
0.05
0.05
0.05
0.05
0.05
0.05
0.05
0.05
0.05
0.05
0.05
0.05
0.05
0.05
1.73119e-28
1.78311e-28
2.00166e-28
2.56195e-28
3.75506e-28
6.16898e-28
1.11715e-27
2.21873e-27
4.83038e-27
1.15149e-26
2.98964e-26
8.36519e-26
2.48784e-25
7.74969e-25
2.49416e-24
8.19473e-24
2.71969e-23
9.03313e-23
2.98042e-22
9.72114e-22
3.12649e-21
9.90547e-21
3.09065e-20
9.49703e-20
2.87481e-19
8.57329e-19
2.51526e-18
7.22745e-18
2.01881e-17
5.43159e-17
1.3956e-16
3.4056e-16
7.8796e-16
1.73106e-15
3.62142e-15
7.23431e-15
1.38241e-14
2.52953e-14
4.43617e-14
7.47033e-14
1.21129e-13
1.89715e-13
2.88024e-13
4.2517e-13
6.11535e-13
8.57773e-13
1.1727e-12
1.55726e-12
1.99643e-12
2.45886e-12
2.91308e-12
3.35162e-12
3.80551e-12
4.33785e-12
5.04037e-12
6.05388e-12
7.63481e-12
1.02966e-11
1.51302e-11
2.46552e-11
4.52561e-11
9.46209e-11
2.28484e-10
6.50972e-10
2.24893e-09
9.68756e-09
5.34071e-08
3.89218e-07
3.98181e-06
6.19185e-05
0.00156666
0.023909
0.0452841
0.0478611
0.0479325
0.0479872
0.048044
0.0480993
0.0481527
0.0482044
0.0482545
0.0483031
0.0483502
0.048396
0.0484405
0.0484838
0.048526
0.048567
0.048607
0.0486459
0.048684
0.0487211
0.0487573
0.0487927
0.0488273
0.0488611
0.0488942
0.0489266
0.0489583
0.0489893
0.0490197
0.0490495
0.0490787
0.0491073
0.0491354
0.0491629
0.04919
0.0492165
0.0492425
0.0492681
0.0492932
0.0493179
0.0493422
0.049366
0.0493896
0.0494128
0.0494356
0.049458
0.0494798
0.0495008
0.0495209
0.0495406
0.0495609
0.0495835
0.0496109
0.0496464
0.0496929
0.0497507
0.0498158
0.0498797
0.0499326
0.049969
0.049989
0.0499973
0.0499996
0.05
0.05
0.05
0.05
0.05
0.05
0.05
0.05
0.05
0.05
0.05
0.05
0.05
0.05
0.05
0.05
0.05
0.05
0.05
0.05
0.05
0.05
0.05
0.05
0.05
0.05
0.05
0.05
0.05
0.05
0.05
2.86811e-28
2.95415e-28
3.31417e-28
4.23037e-28
6.16898e-28
1.00617e-27
1.80554e-27
3.54945e-27
7.64653e-27
1.80306e-26
4.62826e-26
1.27978e-25
3.76038e-25
1.15725e-24
3.6803e-24
1.19541e-23
3.9254e-23
1.29131e-22
4.22379e-22
1.36674e-21
4.36326e-21
1.37285e-20
4.25608e-20
1.30019e-19
3.91526e-19
1.16234e-18
3.39739e-18
9.73391e-18
2.71343e-17
7.29268e-17
1.87409e-16
4.5809e-16
1.06343e-15
2.3476e-15
4.94041e-15
9.93299e-15
1.91055e-14
3.51872e-14
6.21169e-14
1.05295e-13
1.71814e-13
2.70627e-13
4.12765e-13
6.11298e-13
8.80761e-13
1.23564e-12
1.68719e-12
2.23436e-12
2.85303e-12
3.49696e-12
4.12156e-12
4.71735e-12
5.32837e-12
6.03998e-12
6.9747e-12
8.31952e-12
1.04145e-11
1.39355e-11
2.03131e-11
3.28446e-11
5.98349e-11
1.24115e-10
2.97365e-10
8.43505e-10
2.9076e-09
1.24986e-08
6.88326e-08
5.0491e-07
5.20472e-06
8.22042e-05
0.00211272
0.0268458
0.0459437
0.0478703
0.0479349
0.0479898
0.0480467
0.0481019
0.0481552
0.0482067
0.0482567
0.0483052
0.0483523
0.048398
0.0484424
0.0484856
0.0485277
0.0485686
0.0486085
0.0486474
0.0486854
0.0487224
0.0487586
0.048794
0.0488285
0.0488623
0.0488953
0.0489277
0.0489593
0.0489903
0.0490207
0.0490504
0.0490796
0.0491082
0.0491362
0.0491637
0.0491907
0.0492172
0.0492432
0.0492688
0.0492939
0.0493185
0.0493427
0.0493666
0.0493901
0.0494133
0.0494361
0.0494585
0.0494803
0.0495012
0.0495213
0.049541
0.0495613
0.0495838
0.0496113
0.0496467
0.0496931
0.0497509
0.049816
0.0498798
0.0499327
0.0499691
0.049989
0.0499973
0.0499996
0.05
0.05
0.05
0.05
0.05
0.05
0.05
0.05
0.05
0.05
0.05
0.05
0.05
0.05
0.05
0.05
0.05
0.05
0.05
0.05
0.05
0.05
0.05
0.05
0.05
0.05
0.05
0.05
0.05
0.05
0.05
5.23769e-28
5.39563e-28
6.05625e-28
7.70975e-28
1.11715e-27
1.80554e-27
3.20391e-27
6.21819e-27
1.32142e-26
3.07246e-26
7.77461e-26
2.11888e-25
6.13634e-25
1.86165e-24
5.83862e-24
1.87117e-23
6.06699e-23
1.97268e-22
6.38506e-22
2.04661e-21
6.47708e-21
2.02138e-20
6.21846e-20
1.88607e-19
5.6429e-19
1.66589e-18
4.84725e-18
1.38423e-17
3.8512e-17
1.03457e-16
2.66158e-16
6.52305e-16
1.5204e-15
3.37317e-15
7.13728e-15
1.44267e-14
2.78883e-14
5.16065e-14
9.15266e-14
1.5585e-13
2.55347e-13
4.03549e-13
6.1688e-13
9.14373e-13
1.31666e-12
1.84371e-12
2.50992e-12
3.31058e-12
4.20766e-12
5.13279e-12
6.02228e-12
6.86486e-12
7.72366e-12
8.71655e-12
1.00111e-11
1.18632e-11
1.47396e-11
1.95631e-11
2.82762e-11
4.53429e-11
8.19304e-11
1.68567e-10
4.01015e-10
1.13362e-09
3.89942e-09
1.67564e-08
9.29225e-08
6.85096e-07
7.17943e-06
0.000117179
0.0029826
0.0300682
0.0465612
0.0478776
0.0479377
0.047993
0.0480498
0.0481048
0.048158
0.0482095
0.0482593
0.0483077
0.0483546
0.0484002
0.0484446
0.0484877
0.0485296
0.0485705
0.0486103
0.0486492
0.0486871
0.0487241
0.0487602
0.0487955
0.0488299
0.0488637
0.0488967
0.0489289
0.0489605
0.0489915
0.0490218
0.0490515
0.0490807
0.0491092
0.0491372
0.0491647
0.0491917
0.0492181
0.0492441
0.0492696
0.0492947
0.0493193
0.0493435
0.0493673
0.0493908
0.049414
0.0494368
0.0494591
0.0494808
0.0495017
0.0495218
0.0495415
0.0495617
0.0495843
0.0496117
0.0496472
0.0496935
0.0497513
0.0498163
0.04988
0.0499328
0.0499691
0.049989
0.0499973
0.0499996
0.05
0.05
0.05
0.05
0.05
0.05
0.05
0.05
0.05
0.05
0.05
0.05
0.05
0.05
0.05
0.05
0.05
0.05
0.05
0.05
0.05
0.05
0.05
0.05
0.05
0.05
0.05
0.05
0.05
0.05
0.05
1.05129e-27
1.08219e-27
1.21421e-27
1.54147e-27
2.21873e-27
3.54945e-27
6.21819e-27
1.18905e-26
2.48624e-26
5.68317e-26
1.41309e-25
3.78365e-25
1.0767e-24
3.21109e-24
9.90596e-24
3.12485e-23
9.98064e-23
3.19981e-22
1.02234e-21
3.23835e-21
1.01382e-20
3.13262e-20
9.5492e-20
2.87238e-19
8.53158e-19
2.50339e-18
7.24942e-18
2.0634e-17
5.73063e-17
1.5391e-16
3.96441e-16
9.74031e-16
2.2782e-15
5.07491e-15
1.07826e-14
2.18797e-14
4.24444e-14
7.87991e-14
1.40184e-13
2.39361e-13
3.93038e-13
6.22044e-13
9.51219e-13
1.40864e-12
2.024e-12
2.82529e-12
3.8311e-12
5.03019e-12
6.36204e-12
7.7236e-12
9.02296e-12
1.02482e-11
1.14915e-11
1.29197e-11
1.47684e-11
1.74002e-11
2.1477e-11
2.83047e-11
4.06121e-11
6.46441e-11
1.1591e-10
2.36732e-10
5.59828e-10
1.57778e-09
5.42189e-09
2.32999e-08
1.29617e-07
9.68294e-07
1.03398e-05
0.000174065
0.00439558
0.0333811
0.0470681
0.0478834
0.0479409
0.0479966
0.0480533
0.0481082
0.0481612
0.0482125
0.0482622
0.0483105
0.0483573
0.0484028
0.048447
0.04849
0.0485319
0.0485727
0.0486124
0.0486512
0.048689
0.0487259
0.048762
0.0487972
0.0488316
0.0488653
0.0488982
0.0489304
0.048962
0.0489929
0.0490232
0.0490528
0.0490819
0.0491104
0.0491384
0.0491658
0.0491928
0.0492192
0.0492451
0.0492706
0.0492956
0.0493202
0.0493444
0.0493682
0.0493916
0.0494148
0.0494375
0.0494599
0.0494815
0.0495024
0.0495225
0.0495421
0.0495623
0.0495848
0.0496122
0.0496477
0.049694
0.0497517
0.0498167
0.0498803
0.049933
0.0499692
0.0499891
0.0499973
0.0499996
0.05
0.05
0.05
0.05
0.05
0.05
0.05
0.05
0.05
0.05
0.05
0.05
0.05
0.05
0.05
0.05
0.05
0.05
0.05
0.05
0.05
0.05
0.05
0.05
0.05
0.05
0.05
0.05
0.05
0.05
0.05
2.33025e-27
2.3902e-27
2.67161e-27
3.37891e-27
4.83038e-27
7.64653e-27
1.32142e-26
2.48624e-26
5.10475e-26
1.14414e-25
2.78684e-25
7.30724e-25
2.0366e-24
5.9521e-24
1.80078e-23
5.57609e-23
1.74989e-22
5.51797e-22
1.73602e-21
5.4214e-21
1.67534e-20
5.11596e-20
1.54299e-19
4.59756e-19
1.35452e-18
3.94789e-18
1.13725e-17
3.22497e-17
8.93743e-17
2.39876e-16
6.18265e-16
1.5216e-15
3.56756e-15
7.96884e-15
1.6977e-14
3.45332e-14
6.71325e-14
1.24869e-13
2.22499e-13
3.80333e-13
6.24812e-13
9.88565e-13
1.50974e-12
2.2304e-12
3.19401e-12
4.4406e-12
5.99452e-12
7.83274e-12
9.85728e-12
1.19093e-11
1.38544e-11
1.56823e-11
1.75307e-11
1.96427e-11
2.23602e-11
2.62157e-11
3.21808e-11
4.21657e-11
6.01385e-11
9.51175e-11
1.69389e-10
3.43521e-10
8.08383e-10
2.2735e-09
7.7973e-09
3.36108e-08
1.88573e-07
1.42438e-06
1.56108e-05
0.000275215
0.00668678
0.0366378
0.04743
0.0478884
0.0479444
0.0480006
0.0480572
0.0481119
0.0481647
0.0482159
0.0482654
0.0483135
0.0483602
0.0484056
0.0484497
0.0484926
0.0485344
0.0485751
0.0486148
0.0486534
0.0486912
0.048728
0.048764
0.0487991
0.0488335
0.0488671
0.0489
0.0489321
0.0489636
0.0489945
0.0490247
0.0490543
0.0490834
0.0491118
0.0491398
0.0491672
0.049194
0.0492204
0.0492463
0.0492718
0.0492968
0.0493213
0.0493455
0.0493692
0.0493926
0.0494157
0.0494385
0.0494607
0.0494824
0.0495032
0.0495233
0.0495429
0.049563
0.0495855
0.0496129
0.0496484
0.0496947
0.0497524
0.0498172
0.0498807
0.0499333
0.0499694
0.0499891
0.0499973
0.0499996
0.05
0.05
0.05
0.05
0.05
0.05
0.05
0.05
0.05
0.05
0.05
0.05
0.05
0.05
0.05
0.05
0.05
0.05
0.05
0.05
0.05
0.05
0.05
0.05
0.05
0.05
0.05
0.05
0.05
0.05
0.05
5.69551e-27
5.81457e-27
6.45937e-27
8.11966e-27
1.15149e-26
1.80306e-26
3.07246e-26
5.68317e-26
1.14414e-25
2.50926e-25
5.97211e-25
1.52904e-24
4.16113e-24
1.18803e-23
3.51432e-23
1.06512e-22
3.27543e-22
1.01333e-21
3.1319e-21
9.62156e-21
2.92898e-20
8.82312e-20
2.62866e-19
7.74799e-19
2.26162e-18
6.54152e-18
1.87292e-17
5.28698e-17
1.46072e-16
3.91395e-16
1.00831e-15
2.48264e-15
5.82689e-15
1.30316e-14
2.77953e-14
5.65931e-14
1.10085e-13
2.04826e-13
3.64955e-13
6.23471e-13
1.02292e-12
1.61516e-12
2.45956e-12
3.62011e-12
5.16166e-12
7.14229e-12
9.59399e-12
1.24718e-11
1.56148e-11
1.87741e-11
2.17523e-11
2.45445e-11
2.73605e-11
3.05631e-11
3.4664e-11
4.04702e-11
4.94486e-11
6.44774e-11
9.14933e-11
1.43928e-10
2.54737e-10
5.132e-10
1.20417e-09
3.37766e-09
1.15753e-08
5.02598e-08
2.83756e-07
2.1776e-06
2.47539e-05
0.000457729
0.0102935
0.0397361
0.0476517
0.047893
0.0479483
0.048005
0.0480614
0.0481159
0.0481685
0.0482195
0.048269
0.0483169
0.0483635
0.0484087
0.0484527
0.0484955
0.0485372
0.0485778
0.0486174
0.0486559
0.0486936
0.0487303
0.0487662
0.0488013
0.0488356
0.0488691
0.048902
0.0489341
0.0489655
0.0489963
0.0490265
0.049056
0.049085
0.0491134
0.0491413
0.0491687
0.0491955
0.0492218
0.0492477
0.0492731
0.0492981
0.0493226
0.0493467
0.0493704
0.0493938
0.0494168
0.0494395
0.0494618
0.0494834
0.0495042
0.0495242
0.0495437
0.0495639
0.0495864
0.0496137
0.0496492
0.0496955
0.0497531
0.0498179
0.0498812
0.0499336
0.0499695
0.0499892
0.0499973
0.0499996
0.05
0.05
0.05
0.05
0.05
0.05
0.05
0.05
0.05
0.05
0.05
0.05
0.05
0.05
0.05
0.05
0.05
0.05
0.05
0.05
0.05
0.05
0.05
0.05
0.05
0.05
0.05
0.05
0.05
0.05
0.05
1.52358e-26
1.54759e-26
1.70648e-26
2.12789e-26
2.98964e-26
4.62826e-26
7.77461e-26
1.41309e-25
2.78684e-25
5.97211e-25
1.38626e-24
3.45777e-24
9.16435e-24
2.54896e-23
7.35147e-23
2.17477e-22
6.53616e-22
1.97907e-21
5.99537e-21
1.80815e-20
5.41188e-20
1.60527e-19
4.71625e-19
1.37299e-18
3.96544e-18
1.13696e-17
3.2322e-17
9.07285e-17
2.49601e-16
6.66747e-16
1.71414e-15
4.2153e-15
9.88665e-15
2.21005e-14
4.7116e-14
9.58717e-14
1.86303e-13
3.46124e-13
6.15553e-13
1.04913e-12
1.71611e-12
2.69972e-12
4.09328e-12
5.99541e-12
8.50449e-12
1.17058e-11
1.564e-11
2.02202e-11
2.51795e-11
3.01253e-11
3.47684e-11
3.91166e-11
4.34962e-11
4.84582e-11
5.47859e-11
6.37306e-11
7.75607e-11
1.00716e-10
1.42286e-10
2.22826e-10
3.92265e-10
7.86512e-10
1.84263e-09
5.15605e-09
1.77572e-08
7.74952e-08
4.41131e-07
3.48466e-06
4.11477e-05
0.000797234
0.0155537
0.0424643
0.0477687
0.0478976
0.0479526
0.0480098
0.048066
0.0481202
0.0481727
0.0482235
0.0482728
0.0483206
0.048367
0.0484121
0.048456
0.0484987
0.0485402
0.0485807
0.0486202
0.0486587
0.0486962
0.0487329
0.0487687
0.0488037
0.0488379
0.0488714
0.0489041
0.0489362
0.0489676
0.0489983
0.0490284
0.0490579
0.0490869
0.0491152
0.049143
0.0491703
0.0491971
0.0492234
0.0492493
0.0492746
0.0492995
0.049324
0.049348
0.0493717
0.049395
0.0494181
0.0494407
0.0494629
0.0494845
0.0495053
0.0495252
0.0495447
0.0495649
0.0495873
0.0496147
0.0496501
0.0496965
0.049754
0.0498187
0.0498818
0.049934
0.0499697
0.0499893
0.0499973
0.0499996
0.05
0.05
0.05
0.05
0.05
0.05
0.05
0.05
0.05
0.05
0.05
0.05
0.05
0.05
0.05
0.05
0.05
0.05
0.05
0.05
0.05
0.05
0.05
0.05
0.05
0.05
0.05
0.05
0.05
0.05
0.05
4.40014e-26
4.44958e-26
4.86827e-26
6.01515e-26
8.36519e-26
1.27978e-25
2.11888e-25
3.78365e-25
7.30724e-25
1.52904e-24
3.45777e-24
8.38974e-24
2.16147e-23
5.84416e-23
1.6395e-22
4.72263e-22
1.38388e-21
4.09177e-21
1.21244e-20
3.58283e-20
1.05249e-19
3.06891e-19
8.87701e-19
2.5486e-18
7.2733e-18
2.06478e-17
5.82199e-17
1.62322e-16
4.44055e-16
1.18061e-15
3.02329e-15
7.41038e-15
1.73338e-14
3.86567e-14
8.22276e-14
1.66929e-13
3.23511e-13
5.99067e-13
1.06135e-12
1.80153e-12
2.93334e-12
4.591e-12
6.9218e-12
1.00792e-11
1.42147e-11
1.94541e-11
2.58446e-11
3.32183e-11
4.11312e-11
4.89631e-11
5.62942e-11
6.31613e-11
7.00834e-11
7.79023e-11
8.78377e-11
1.01861e-10
1.23556e-10
1.59906e-10
2.25124e-10
3.51386e-10
6.15931e-10
1.23178e-09
2.88529e-09
8.07785e-09
2.7991e-08
1.23077e-07
7.11872e-07
5.80292e-06
7.12634e-05
0.00145257
0.0219412
0.0446735
0.0478217
0.0479023
0.0479575
0.0480149
0.0480709
0.0481249
0.0481772
0.0482278
0.0482769
0.0483246
0.0483708
0.0484158
0.0484595
0.0485021
0.0485435
0.0485839
0.0486233
0.0486617
0.0486991
0.0487357
0.0487714
0.0488063
0.0488405
0.0488739
0.0489065
0.0489385
0.0489698
0.0490005
0.0490306
0.04906
0.0490889
0.0491172
0.049145
0.0491722
0.0491989
0.0492252
0.049251
0.0492763
0.0493011
0.0493256
0.0493496
0.0493732
0.0493965
0.0494195
0.0494421
0.0494642
0.0494858
0.0495065
0.0495264
0.0495459
0.049566
0.0495884
0.0496158
0.0496512
0.0496976
0.0497551
0.0498196
0.0498825
0.0499345
0.04997
0.0499894
0.0499974
0.0499996
0.05
0.05
0.05
0.05
0.05
0.05
0.05
0.05
0.05
0.05
0.05
0.05
0.05
0.05
0.05
0.05
0.05
0.05
0.05
0.05
0.05
0.05
0.05
0.05
0.05
0.05
0.05
0.05
0.05
0.05
0.05
1.35032e-25
1.36036e-25
1.47726e-25
1.80811e-25
2.48784e-25
3.76038e-25
6.13634e-25
1.0767e-24
2.0366e-24
4.16113e-24
9.16435e-24
2.16147e-23
5.40738e-23
1.41929e-22
3.86666e-22
1.08257e-21
3.08717e-21
8.89699e-21
2.57403e-20
7.44078e-20
2.14211e-19
6.13144e-19
1.74382e-18
4.9311e-18
1.38876e-17
3.89869e-17
1.089e-16
3.01179e-16
8.18066e-16
2.161e-15
5.50129e-15
1.34123e-14
3.12252e-14
6.93426e-14
1.46908e-13
2.9703e-13
5.73127e-13
1.05604e-12
1.8605e-12
3.13965e-12
5.08134e-12
7.90187e-12
1.18339e-11
1.7117e-11
2.39859e-11
3.26268e-11
4.30843e-11
5.50372e-11
6.77451e-11
8.02296e-11
9.18924e-11
1.02836e-10
1.13898e-10
1.26364e-10
1.4216e-10
1.64428e-10
1.98934e-10
2.56819e-10
3.60749e-10
5.61895e-10
9.82249e-10
1.96216e-09
4.60372e-09
1.29432e-08
4.51192e-08
2.01008e-07
1.18866e-06
1.0037e-05
0.000130058
0.002747
0.0284384
0.0462018
0.047844
0.0479071
0.0479629
0.0480203
0.048076
0.0481298
0.0481819
0.0482324
0.0482813
0.0483288
0.0483749
0.0484197
0.0484633
0.0485057
0.0485471
0.0485873
0.0486266
0.0486649
0.0487022
0.0487387
0.0487743
0.0488092
0.0488432
0.0488765
0.0489091
0.048941
0.0489723
0.0490029
0.0490329
0.0490623
0.0490911
0.0491193
0.049147
0.0491742
0.0492009
0.0492271
0.0492528
0.0492781
0.0493029
0.0493273
0.0493512
0.0493748
0.0493981
0.049421
0.0494436
0.0494657
0.0494872
0.0495078
0.0495277
0.0495471
0.0495672
0.0495896
0.049617
0.0496525
0.0496988
0.0497563
0.0498207
0.0498834
0.0499351
0.0499703
0.0499895
0.0499974
0.0499996
0.05
0.05
0.05
0.05
0.05
0.05
0.05
0.05
0.05
0.05
0.05
0.05
0.05
0.05
0.05
0.05
0.05
0.05
0.05
0.05
0.05
0.05
0.05
0.05
0.05
0.05
0.05
0.05
0.05
0.05
0.05
4.3345e-25
4.35324e-25
4.69469e-25
5.69312e-25
7.74969e-25
1.15725e-24
1.86165e-24
3.21109e-24
5.9521e-24
1.18803e-23
2.54896e-23
5.84416e-23
1.41929e-22
3.61423e-22
9.55393e-22
2.59714e-21
7.19892e-21
2.01961e-20
5.69773e-20
1.60919e-19
4.53494e-19
1.27294e-18
3.55628e-18
9.89559e-18
2.74739e-17
7.61772e-17
2.10501e-16
5.76624e-16
1.55247e-15
4.0671e-15
1.0273e-14
2.48638e-14
5.75033e-14
1.26931e-13
2.67363e-13
5.37439e-13
1.03067e-12
1.88665e-12
3.29986e-12
5.52691e-12
8.87824e-12
1.37019e-11
2.0362e-11
2.92324e-11
4.06781e-11
5.49736e-11
7.21361e-11
9.15597e-11
1.12011e-10
1.3195e-10
1.50555e-10
1.68067e-10
1.85851e-10
2.05857e-10
2.31166e-10
2.66819e-10
3.22233e-10
4.15341e-10
5.8284e-10
9.06802e-10
1.58417e-09
3.16708e-09
7.45699e-09
2.11174e-08
7.41446e-08
3.37513e-07
2.04717e-06
1.80212e-05
0.000249442
0.00522671
0.0342663
0.0471355
0.0478543
0.0479121
0.0479686
0.048026
0.0480815
0.048135
0.0481869
0.0482372
0.0482859
0.0483332
0.0483792
0.0484239
0.0484673
0.0485096
0.0485508
0.048591
0.0486301
0.0486683
0.0487055
0.0487419
0.0487775
0.0488122
0.0488462
0.0488794
0.0489119
0.0489437
0.0489749
0.0490054
0.0490354
0.0490647
0.0490934
0.0491216
0.0491493
0.0491764
0.0492031
0.0492292
0.0492549
0.0492801
0.0493048
0.0493292
0.0493531
0.0493766
0.0493998
0.0494227
0.0494452
0.0494673
0.0494887
0.0495093
0.0495291
0.0495486
0.0495686
0.049591
0.0496184
0.0496539
0.0497003
0.0497577
0.0498219
0.0498844
0.0499357
0.0499707
0.0499897
0.0499974
0.0499996
0.05
0.05
0.05
0.05
0.05
0.05
0.05
0.05
0.05
0.05
0.05
0.05
0.05
0.05
0.05
0.05
0.05
0.05
0.05
0.05
0.05
0.05
0.05
0.05
0.05
0.05
0.05
0.05
0.05
0.05
0.05
1.4353e-24
1.43765e-24
1.54036e-24
1.85156e-24
2.49416e-24
3.6803e-24
5.83862e-24
9.90596e-24
1.80078e-23
3.51432e-23
7.35147e-23
1.6395e-22
3.86666e-22
9.55393e-22
2.45017e-21
6.46494e-21
1.74096e-20
4.75148e-20
1.30616e-19
3.60115e-19
9.92626e-19
2.73017e-18
7.48706e-18
2.04852e-17
5.60182e-17
1.53237e-16
4.18361e-16
1.1334e-15
3.01962e-15
7.8313e-15
1.95932e-14
4.69991e-14
1.07799e-13
2.36129e-13
4.93646e-13
9.84733e-13
1.87347e-12
3.401e-12
5.89633e-12
9.78583e-12
1.55793e-11
2.38342e-11
3.51124e-11
4.99968e-11
6.90525e-11
9.26775e-11
1.20797e-10
1.52288e-10
1.85111e-10
2.16884e-10
2.4653e-10
2.74567e-10
3.03199e-10
3.35389e-10
3.76103e-10
4.3347e-10
5.22983e-10
6.73688e-10
9.45588e-10
1.47089e-09
2.57373e-09
5.16339e-09
1.22149e-08
3.49695e-08
1.23955e-07
5.80622e-07
3.63164e-06
3.35434e-05
0.000502497
0.00984677
0.0391721
0.0475816
0.0478612
0.0479174
0.0479748
0.048032
0.0480872
0.0481405
0.0481922
0.0482422
0.0482908
0.0483379
0.0483837
0.0484283
0.0484716
0.0485137
0.0485548
0.0485948
0.0486338
0.0486719
0.048709
0.0487453
0.0487807
0.0488154
0.0488493
0.0488824
0.0489149
0.0489466
0.0489777
0.0490082
0.049038
0.0490673
0.049096
0.0491241
0.0491517
0.0491788
0.0492053
0.0492314
0.049257
0.0492822
0.0493069
0.0493312
0.0493551
0.0493785
0.0494017
0.0494245
0.049447
0.049469
0.0494904
0.049511
0.0495307
0.0495501
0.0495701
0.0495925
0.04962
0.0496555
0.0497019
0.0497593
0.0498233
0.0498855
0.0499365
0.0499711
0.0499898
0.0499975
0.0499996
0.05
0.05
0.05
0.05
0.05
0.05
0.05
0.05
0.05
0.05
0.05
0.05
0.05
0.05
0.05
0.05
0.05
0.05
0.05
0.05
0.05
0.05
0.05
0.05
0.05
0.05
0.05
0.05
0.05
0.05
0.05
4.84504e-24
4.84085e-24
5.15427e-24
6.14374e-24
8.19473e-24
1.19541e-23
1.87117e-23
3.12485e-23
5.57609e-23
1.06512e-22
2.17477e-22
4.72263e-22
1.08257e-21
2.59714e-21
6.46494e-21
1.65625e-20
4.33381e-20
1.15067e-19
3.08173e-19
8.29188e-19
2.23456e-18
6.01921e-18
1.61939e-17
4.35417e-17
1.1719e-16
3.15971e-16
8.51314e-16
2.27781e-15
5.99565e-15
1.53677e-14
3.80232e-14
9.02613e-14
2.05002e-13
4.44858e-13
9.21362e-13
1.82038e-12
3.42898e-12
6.1616e-12
1.05713e-11
1.73585e-11
2.73493e-11
4.14274e-11
6.04512e-11
8.53242e-11
1.16905e-10
1.55742e-10
2.01525e-10
2.52226e-10
3.04547e-10
3.54898e-10
4.01973e-10
4.46778e-10
4.92819e-10
5.44603e-10
6.10156e-10
7.02624e-10
8.47561e-10
1.09233e-09
1.53567e-09
2.39243e-09
4.20052e-09
8.47795e-09
2.01755e-08
5.87226e-08
2.11983e-07
1.02022e-06
6.64944e-06
6.47977e-05
0.00105627
0.017183
0.0429985
0.0477509
0.0478673
0.0479232
0.0479812
0.0480382
0.0480931
0.0481462
0.0481976
0.0482475
0.0482959
0.0483428
0.0483885
0.0484328
0.048476
0.048518
0.0485589
0.0485988
0.0486377
0.0486756
0.0487127
0.0487489
0.0487842
0.0488188
0.0488526
0.0488856
0.048918
0.0489496
0.0489807
0.049011
0.0490408
0.04907
0.0490986
0.0491267
0.0491542
0.0491813
0.0492078
0.0492338
0.0492594
0.0492845
0.0493091
0.0493334
0.0493572
0.0493806
0.0494037
0.0494265
0.0494489
0.0494709
0.0494922
0.0495127
0.0495324
0.0495518
0.0495718
0.0495942
0.0496216
0.0496573
0.0497037
0.049761
0.0498249
0.0498867
0.0499373
0.0499716
0.04999
0.0499976
0.0499996
0.05
0.05
0.05
0.05
0.05
0.05
0.05
0.05
0.05
0.05
0.05
0.05
0.05
0.05
0.05
0.05
0.05
0.05
0.05
0.05
0.05
0.05
0.05
0.05
0.05
0.05
0.05
0.05
0.05
0.05
0.05
1.6498e-23
1.64475e-23
1.74112e-23
2.0579e-23
2.71969e-23
3.9254e-23
6.06699e-23
9.98064e-23
1.74989e-22
3.27543e-22
6.53616e-22
1.38388e-21
3.08717e-21
7.19892e-21
1.74096e-20
4.33381e-20
1.10251e-19
2.84898e-19
7.43591e-19
1.95266e-18
5.14372e-18
1.35653e-17
3.57906e-17
9.45377e-17
2.50347e-16
6.64993e-16
1.76682e-15
4.66403e-15
1.21134e-14
3.06397e-14
7.48538e-14
1.75572e-13
3.94174e-13
8.45759e-13
1.73189e-12
3.38213e-12
6.29504e-12
1.11756e-11
1.89432e-11
3.0732e-11
4.78565e-11
7.16957e-11
1.03553e-10
1.44803e-10
1.96718e-10
2.59991e-10
3.33781e-10
4.1456e-10
4.97156e-10
5.76381e-10
6.50797e-10
7.22214e-10
7.96017e-10
8.79072e-10
9.8434e-10
1.13322e-09
1.36793e-09
1.76618e-09
2.49095e-09
3.89459e-09
6.86998e-09
1.3989e-08
3.37082e-08
9.99454e-08
3.7068e-07
1.82176e-06
1.25835e-05
0.00013141
0.00230733
0.0257644
0.0455939
0.0478036
0.0478733
0.0479297
0.0479879
0.0480446
0.0480992
0.0481521
0.0482033
0.048253
0.0483012
0.0483479
0.0483934
0.0484376
0.0484806
0.0485225
0.0485632
0.048603
0.0486418
0.0486796
0.0487165
0.0487526
0.0487878
0.0488223
0.048856
0.048889
0.0489212
0.0489528
0.0489838
0.0490141
0.0490438
0.0490729
0.0491015
0.0491295
0.0491569
0.0491839
0.0492103
0.0492363
0.0492618
0.0492869
0.0493115
0.0493357
0.0493594
0.0493828
0.0494059
0.0494286
0.049451
0.0494729
0.0494942
0.0495146
0.0495343
0.0495536
0.0495736
0.049596
0.0496235
0.0496592
0.0497056
0.0497629
0.0498266
0.0498881
0.0499382
0.0499721
0.0499903
0.0499976
0.0499996
0.05
0.05
0.05
0.05
0.05
0.05
0.05
0.05
0.05
0.05
0.05
0.05
0.05
0.05
0.05
0.05
0.05
0.05
0.05
0.05
0.05
0.05
0.05
0.05
0.05
0.05
0.05
0.05
0.05
0.05
0.05
5.61767e-23
5.58909e-23
5.88445e-23
6.89542e-23
9.03313e-23
1.29131e-22
1.97268e-22
3.19981e-22
5.51797e-22
1.01333e-21
1.97907e-21
4.09177e-21
8.89699e-21
2.01961e-20
4.75148e-20
1.15067e-19
2.84898e-19
7.17143e-19
1.82534e-18
4.67984e-18
1.20506e-17
3.11096e-17
8.04787e-17
2.08814e-16
5.44062e-16
1.4236e-15
3.72812e-15
9.70127e-15
2.48329e-14
6.18983e-14
1.49061e-13
3.4481e-13
7.63653e-13
1.6165e-12
3.2655e-12
6.29007e-12
1.15458e-11
2.0214e-11
3.37987e-11
5.4104e-11
8.31741e-11
1.23122e-10
1.75925e-10
2.43612e-10
3.28031e-10
4.29918e-10
5.4736e-10
6.74457e-10
8.0342e-10
9.2714e-10
1.04423e-09
1.15763e-09
1.27523e-09
1.40755e-09
1.57556e-09
1.81467e-09
2.19435e-09
2.84311e-09
4.0286e-09
6.33609e-09
1.1264e-08
2.32007e-08
5.69231e-08
1.71554e-07
6.59562e-07
3.3501e-06
2.47326e-05
0.000281393
0.00506311
0.033479
0.0469878
0.04782
0.0478792
0.0479366
0.0479948
0.0480512
0.0481056
0.0481582
0.0482092
0.0482586
0.0483066
0.0483532
0.0483985
0.0484425
0.0484854
0.0485271
0.0485677
0.0486074
0.048646
0.0486837
0.0487205
0.0487565
0.0487916
0.048826
0.0488596
0.0488925
0.0489246
0.0489561
0.048987
0.0490172
0.0490469
0.0490759
0.0491044
0.0491323
0.0491598
0.0491866
0.049213
0.049239
0.0492644
0.0492894
0.049314
0.0493381
0.0493618
0.0493851
0.0494081
0.0494308
0.0494532
0.049475
0.0494963
0.0495167
0.0495363
0.0495555
0.0495755
0.0495979
0.0496255
0.0496613
0.0497078
0.0497651
0.0498285
0.0498896
0.0499393
0.0499726
0.0499905
0.0499977
0.0499997
0.05
0.05
0.05
0.05
0.05
0.05
0.05
0.05
0.05
0.05
0.05
0.05
0.05
0.05
0.05
0.05
0.05
0.05
0.05
0.05
0.05
0.05
0.05
0.05
0.05
0.05
0.05
0.05
0.05
0.05
0.05
1.89896e-22