/*--------------------------------*- C++ -*----------------------------------*\
  =========                 |
  \\      /  F ield         | OpenFOAM: The Open Source CFD Toolbox
   \\    /   O peration     | Website:  https://openfoam.org
    \\  /    A nd           | Version:  13
     \\/     M anipulation  |
\*---------------------------------------------------------------------------*/
FoamFile
{
    format      ascii;
    class       volScalarField;
    location    "0.0016";
    object      CO2;
}
// * * * * * * * * * * * * * * * * * * * * * * * * * * * * * * * * * * * * * //

dimensions      [];

internalField   nonuniform List<scalar> 
33334
(
0.137164
0.137164
0.137164
0.137164
0.137164
0.137164
0.137164
0.137164
0.137164
0.137164
0.137164
0.137164
0.137164
0.137164
0.137164
0.137164
0.137164
0.137164
0.137164
0.137164
0.137164
0.137164
0.137164
0.137164
0.137164
0.137164
0.137164
0.137164
0.137164
0.137164
0.137164
0.137164
0.137164
0.137164
0.137164
0.137164
0.137164
0.137164
0.137164
0.137164
0.137164
0.137164
0.137164
0.137164
0.137164
0.137164
0.137164
0.137164
0.137164
0.137164
0.137164
0.137164
0.137164
0.137164
0.137164
0.137164
0.137164
0.137164
0.137164
0.137164
0.137164
0.137164
0.137164
0.137164
0.137164
0.137164
0.137164
0.137164
0.137157
0.13706
0.134583
0.0857179
0.0169657
0.00594554
0.00568657
0.00553689
0.00538086
0.00522804
0.00508061
0.00493796
0.00479974
0.00466571
0.00453569
0.00440952
0.00428697
0.00416781
0.00405184
0.00393892
0.0038289
0.00372165
0.00361704
0.00351495
0.00341527
0.0033179
0.00322275
0.00312971
0.00303871
0.00294967
0.00286251
0.00277716
0.00269357
0.00261166
0.00253139
0.00245269
0.00237551
0.0022998
0.00222551
0.00215259
0.002081
0.00201071
0.00194167
0.00187386
0.00180719
0.00174157
0.00167689
0.00161308
0.00155024
0.00148865
0.00142882
0.00137121
0.00131582
0.00126159
0.00120582
0.00114374
0.00106826
0.000970607
0.000842972
0.000684105
0.000505213
0.000329943
0.00018457
8.48364e-05
3.01153e-05
7.51114e-06
1.14604e-06
8.85483e-08
2.74133e-09
2.6678e-11
3.72453e-13
3.1084e-13
3.10572e-13
3.10212e-13
3.08872e-13
3.05162e-13
2.97921e-13
2.87033e-13
2.73634e-13
2.59501e-13
2.4612e-13
2.34143e-13
2.23473e-13
2.13655e-13
2.04212e-13
1.94814e-13
1.85311e-13
1.75702e-13
1.66069e-13
1.56512e-13
1.47111e-13
1.379e-13
1.28879e-13
1.20016e-13
1.11271e-13
1.02609e-13
9.40077e-14
8.54516e-14
0.137164
0.137164
0.137164
0.137164
0.137164
0.137164
0.137164
0.137164
0.137164
0.137164
0.137164
0.137164
0.137164
0.137164
0.137164
0.137164
0.137164
0.137164
0.137164
0.137164
0.137164
0.137164
0.137164
0.137164
0.137164
0.137164
0.137164
0.137164
0.137164
0.137164
0.137164
0.137164
0.137164
0.137164
0.137164
0.137164
0.137164
0.137164
0.137164
0.137164
0.137164
0.137164
0.137164
0.137164
0.137164
0.137164
0.137164
0.137164
0.137164
0.137164
0.137164
0.137164
0.137164
0.137164
0.137164
0.137164
0.137164
0.137164
0.137164
0.137164
0.137164
0.137164
0.137164
0.137164
0.137164
0.137164
0.137164
0.137164
0.137158
0.137065
0.134679
0.0866663
0.0173223
0.00595078
0.00568474
0.00553512
0.00537923
0.0052265
0.0050792
0.00493674
0.00479877
0.00466505
0.00453532
0.00440932
0.00428681
0.00416765
0.0040517
0.00393879
0.00382879
0.00372155
0.00361695
0.00351487
0.00341521
0.00331784
0.00322269
0.00312966
0.00303867
0.00294963
0.00286247
0.00277713
0.00269354
0.00261164
0.00253136
0.00245267
0.00237549
0.00229979
0.0022255
0.00215258
0.00208099
0.0020107
0.00194167
0.00187385
0.00180719
0.00174157
0.00167689
0.00161309
0.00155024
0.00148866
0.00142883
0.00137122
0.00131583
0.0012616
0.00120584
0.00114377
0.00106832
0.000970707
0.000843129
0.000684307
0.000505422
0.000330112
0.000184679
8.48915e-05
3.01365e-05
7.51706e-06
1.14711e-06
8.8651e-08
2.74538e-09
2.67273e-11
3.72588e-13
3.10833e-13
3.10566e-13
3.10205e-13
3.08867e-13
3.05158e-13
2.97919e-13
2.87033e-13
2.73635e-13
2.59501e-13
2.4612e-13
2.34143e-13
2.23473e-13
2.13654e-13
2.04211e-13
1.94813e-13
1.85311e-13
1.75702e-13
1.66068e-13
1.56512e-13
1.4711e-13
1.379e-13
1.28878e-13
1.20015e-13
1.1127e-13
1.02609e-13
9.40072e-14
8.54511e-14
0.137164
0.137164
0.137164
0.137164
0.137164
0.137164
0.137164
0.137164
0.137164
0.137164
0.137164
0.137164
0.137164
0.137164
0.137164
0.137164
0.137164
0.137164
0.137164
0.137164
0.137164
0.137164
0.137164
0.137164
0.137164
0.137164
0.137164
0.137164
0.137164
0.137164
0.137164
0.137164
0.137164
0.137164
0.137164
0.137164
0.137164
0.137164
0.137164
0.137164
0.137164
0.137164
0.137164
0.137164
0.137164
0.137164
0.137164
0.137164
0.137164
0.137164
0.137164
0.137164
0.137164
0.137164
0.137164
0.137164
0.137164
0.137164
0.137164
0.137164
0.137164
0.137164
0.137164
0.137164
0.137164
0.137164
0.137164
0.137164
0.137157
0.137052
0.134342
0.0834879
0.0162946
0.00592849
0.0056815
0.00553195
0.00537616
0.00522374
0.00507676
0.00493459
0.00479687
0.00466331
0.00453367
0.00440771
0.00428526
0.00416618
0.0040503
0.00393747
0.00382752
0.00372034
0.0036158
0.00351377
0.00341415
0.00331683
0.00322173
0.00312874
0.00303778
0.00294878
0.00286166
0.00277636
0.0026928
0.00261093
0.00253069
0.00245202
0.00237488
0.0022992
0.00222494
0.00215204
0.00208048
0.00201021
0.0019412
0.00187341
0.00180677
0.00174118
0.00167652
0.00161274
0.00154991
0.00148835
0.00142854
0.00137095
0.00131559
0.00126138
0.00120564
0.00114362
0.00106821
0.00097066
0.000843157
0.000684404
0.000505567
0.000330274
0.000184814
8.49769e-05
3.0176e-05
7.52932e-06
1.14939e-06
8.88633e-08
2.75318e-09
2.68158e-11
3.72815e-13
3.10818e-13
3.1055e-13
3.1019e-13
3.08853e-13
3.05147e-13
2.97911e-13
2.87028e-13
2.73631e-13
2.59498e-13
2.46116e-13
2.34139e-13
2.23468e-13
2.13649e-13
2.04207e-13
1.94809e-13
1.85306e-13
1.75698e-13
1.66065e-13
1.56508e-13
1.47107e-13
1.37897e-13
1.28875e-13
1.20012e-13
1.11268e-13
1.02607e-13
9.40052e-14
8.54493e-14
0.137164
0.137164
0.137164
0.137164
0.137164
0.137164
0.137164
0.137164
0.137164
0.137164
0.137164
0.137164
0.137164
0.137164
0.137164
0.137164
0.137164
0.137164
0.137164
0.137164
0.137164
0.137164
0.137164
0.137164
0.137164
0.137164
0.137164
0.137164
0.137164
0.137164
0.137164
0.137164
0.137164
0.137164
0.137164
0.137164
0.137164
0.137164
0.137164
0.137164
0.137164
0.137164
0.137164
0.137164
0.137164
0.137164
0.137164
0.137164
0.137164
0.137164
0.137164
0.137164
0.137164
0.137164
0.137164
0.137164
0.137164
0.137164
0.137164
0.137164
0.137164
0.137164
0.137164
0.137164
0.137164
0.137164
0.137164
0.137163
0.137156
0.137032
0.133814
0.0784589
0.0147845
0.00589788
0.00567725
0.00552757
0.00537179
0.00521969
0.00507296
0.00493098
0.00479338
0.00465992
0.00453036
0.00440452
0.00428222
0.00416328
0.00404753
0.00393481
0.00382499
0.00371791
0.00361347
0.00351155
0.00341202
0.0033148
0.00321978
0.00312687
0.003036
0.00294707
0.00286003
0.00277479
0.0026913
0.00260949
0.00252931
0.00245071
0.00237362
0.002298
0.00222379
0.00215095
0.00207943
0.00200921
0.00194025
0.00187251
0.00180591
0.00174036
0.00167575
0.00161201
0.00154923
0.00148771
0.00142794
0.00137039
0.00131506
0.0012609
0.00120521
0.00114324
0.0010679
0.000970421
0.000842987
0.000684305
0.000505538
0.000330295
0.000184858
8.50178e-05
3.02014e-05
7.53955e-06
1.15165e-06
8.9092e-08
2.76185e-09
2.69134e-11
3.73055e-13
3.108e-13
3.10532e-13
3.10172e-13
3.08836e-13
3.05132e-13
2.97898e-13
2.87018e-13
2.73622e-13
2.5949e-13
2.46109e-13
2.34131e-13
2.2346e-13
2.13642e-13
2.042e-13
1.94802e-13
1.853e-13
1.75692e-13
1.6606e-13
1.56504e-13
1.47103e-13
1.37893e-13
1.28872e-13
1.20009e-13
1.11265e-13
1.02604e-13
9.40031e-14
8.54476e-14
0.137164
0.137164
0.137164
0.137164
0.137164
0.137164
0.137164
0.137164
0.137164
0.137164
0.137164
0.137164
0.137164
0.137164
0.137164
0.137164
0.137164
0.137164
0.137164
0.137164
0.137164
0.137164
0.137164
0.137164
0.137164
0.137164
0.137164
0.137164
0.137164
0.137164
0.137164
0.137164
0.137164
0.137164
0.137164
0.137164
0.137164
0.137164
0.137164
0.137164
0.137164
0.137164
0.137164
0.137164
0.137164
0.137164
0.137164
0.137164
0.137164
0.137164
0.137164
0.137164
0.137164
0.137164
0.137164
0.137164
0.137164
0.137164
0.137164
0.137164
0.137164
0.137164
0.137164
0.137164
0.137164
0.137164
0.137164
0.137163
0.137153
0.136994
0.132867
0.071575
0.0129371
0.00586752
0.00567188
0.00552178
0.00536593
0.00521412
0.00506762
0.00492582
0.0047884
0.00465512
0.00452577
0.00440014
0.00427804
0.00415929
0.00404371
0.00393116
0.00382149
0.00371457
0.00361027
0.00350848
0.00340908
0.00331198
0.00321708
0.00312429
0.00303352
0.0029447
0.00285775
0.00277261
0.0026892
0.00260748
0.00252739
0.00244886
0.00237185
0.0022963
0.00222216
0.00214939
0.00207794
0.00200779
0.00193889
0.0018712
0.00180467
0.00173917
0.00167462
0.00161093
0.00154821
0.00148675
0.00142703
0.00136954
0.00131426
0.00126015
0.00120452
0.0011426
0.00106732
0.000969913
0.000842563
0.000683978
0.000505309
0.000330153
0.000184786
8.49931e-05
3.01989e-05
7.54154e-06
1.15251e-06
8.9218e-08
2.76804e-09
2.69938e-11
3.73266e-13
3.10787e-13
3.10519e-13
3.1016e-13
3.08823e-13
3.05121e-13
2.97888e-13
2.87009e-13
2.73614e-13
2.59483e-13
2.46102e-13
2.34125e-13
2.23454e-13
2.13636e-13
2.04195e-13
1.94798e-13
1.85296e-13
1.75689e-13
1.66056e-13
1.56501e-13
1.471e-13
1.37891e-13
1.2887e-13
1.20008e-13
1.11264e-13
1.02603e-13
9.40022e-14
8.54469e-14
0.137164
0.137164
0.137164
0.137164
0.137164
0.137164
0.137164
0.137164
0.137164
0.137164
0.137164
0.137164
0.137164
0.137164
0.137164
0.137164
0.137164
0.137164
0.137164
0.137164
0.137164
0.137164
0.137164
0.137164
0.137164
0.137164
0.137164
0.137164
0.137164
0.137164
0.137164
0.137164
0.137164
0.137164
0.137164
0.137164
0.137164
0.137164
0.137164
0.137164
0.137164
0.137164
0.137164
0.137164
0.137164
0.137164
0.137164
0.137164
0.137164
0.137164
0.137164
0.137164
0.137164
0.137164
0.137164
0.137164
0.137164
0.137164
0.137164
0.137164
0.137164
0.137164
0.137164
0.137164
0.137164
0.137164
0.137164
0.137163
0.13715
0.136939
0.131369
0.0635187
0.0111275
0.00584227
0.00566525
0.00551445
0.00535859
0.00520712
0.00506093
0.00491941
0.00478227
0.00464927
0.00452019
0.00439482
0.00427295
0.00415442
0.00403905
0.0039267
0.00381722
0.00371047
0.00360634
0.00350471
0.00340547
0.00330851
0.00321375
0.00312109
0.00303045
0.00294174
0.00285491
0.00276988
0.00268658
0.00260496
0.00252496
0.00244653
0.0023696
0.00229414
0.00222008
0.00214739
0.00207602
0.00200594
0.00193711
0.0018695
0.00180303
0.00173761
0.00167312
0.0016095
0.00154684
0.00148545
0.0014258
0.00136837
0.00131316
0.00125911
0.00120354
0.00114167
0.00106645
0.000969098
0.000841821
0.000683336
0.000504801
0.000329802
0.000184583
8.49004e-05
3.01684e-05
7.53525e-06
1.15196e-06
8.9226e-08
2.77022e-09
2.70374e-11
3.73412e-13
3.10782e-13
3.10513e-13
3.10154e-13
3.08818e-13
3.05115e-13
2.97883e-13
2.87004e-13
2.7361e-13
2.59479e-13
2.46099e-13
2.34122e-13
2.23452e-13
2.13634e-13
2.04193e-13
1.94796e-13
1.85295e-13
1.75687e-13
1.66055e-13
1.565e-13
1.47099e-13
1.3789e-13
1.28869e-13
1.20007e-13
1.11264e-13
1.02603e-13
9.4002e-14
8.54467e-14
0.137164
0.137164
0.137164
0.137164
0.137164
0.137164
0.137164
0.137164
0.137164
0.137164
0.137164
0.137164
0.137164
0.137164
0.137164
0.137164
0.137164
0.137164
0.137164
0.137164
0.137164
0.137164
0.137164
0.137164
0.137164
0.137164
0.137164
0.137164
0.137164
0.137164
0.137164
0.137164
0.137164
0.137164
0.137164
0.137164
0.137164
0.137164
0.137164
0.137164
0.137164
0.137164
0.137164
0.137164
0.137164
0.137164
0.137164
0.137164
0.137164
0.137164
0.137164
0.137164
0.137164
0.137164
0.137164
0.137164
0.137164
0.137164
0.137164
0.137164
0.137164
0.137164
0.137164
0.137164
0.137164
0.137164
0.137164
0.137162
0.137145
0.136843
0.128982
0.0546787
0.00943349
0.00582223
0.00565751
0.00550575
0.00534998
0.00519896
0.00505315
0.00491199
0.0047752
0.00464252
0.00451374
0.00438864
0.00426704
0.00414876
0.00403363
0.0039215
0.00381222
0.00370568
0.00360174
0.00350028
0.00340121
0.00330442
0.00320981
0.00311729
0.00302679
0.00293822
0.00285151
0.0027666
0.00268342
0.00260191
0.00252202
0.00244369
0.00236686
0.0022915
0.00221753
0.00214493
0.00207365
0.00200365
0.00193491
0.00186737
0.00180098
0.00173564
0.00167122
0.00160769
0.00154511
0.00148378
0.00142421
0.00136686
0.00131173
0.00125776
0.00120225
0.00114044
0.00106526
0.000967956
0.000840741
0.00068236
0.000503993
0.000329212
0.000184217
8.47179e-05
3.01014e-05
7.51965e-06
1.15007e-06
8.91355e-08
2.76939e-09
2.70517e-11
3.73499e-13
3.10779e-13
3.10511e-13
3.10152e-13
3.08816e-13
3.05114e-13
2.97882e-13
2.87003e-13
2.73609e-13
2.59478e-13
2.46098e-13
2.34121e-13
2.23451e-13
2.13634e-13
2.04192e-13
1.94796e-13
1.85294e-13
1.75687e-13
1.66055e-13
1.565e-13
1.47099e-13
1.3789e-13
1.28869e-13
1.20007e-13
1.11264e-13
1.02603e-13
9.4002e-14
8.54468e-14
0.137164
0.137164
0.137164
0.137164
0.137164
0.137164
0.137164
0.137164
0.137164
0.137164
0.137164
0.137164
0.137164
0.137164
0.137164
0.137164
0.137164
0.137164
0.137164
0.137164
0.137164
0.137164
0.137164
0.137164
0.137164
0.137164
0.137164
0.137164
0.137164
0.137164
0.137164
0.137164
0.137164
0.137164
0.137164
0.137164
0.137164
0.137164
0.137164
0.137164
0.137164
0.137164
0.137164
0.137164
0.137164
0.137164
0.137164
0.137164
0.137164
0.137164
0.137164
0.137164
0.137164
0.137164
0.137164
0.137164
0.137164
0.137164
0.137164
0.137164
0.137164
0.137164
0.137164
0.137164
0.137164
0.137164
0.137164
0.137162
0.137136
0.136687
0.125106
0.0455904
0.00804303
0.00580637
0.00564878
0.00549584
0.00534029
0.00518978
0.00504441
0.00490365
0.00476723
0.0046349
0.00450645
0.00438166
0.00426034
0.00414233
0.00402745
0.00391556
0.00380652
0.00370019
0.00359645
0.00349519
0.00339631
0.00329969
0.00320524
0.00311289
0.00302254
0.00293412
0.00284755
0.00276277
0.00267972
0.00259833
0.00251856
0.00244034
0.00236362
0.00228836
0.0022145
0.002142
0.00207081
0.00200091
0.00193226
0.00186482
0.00179852
0.00173326
0.00166893
0.00160548
0.00154299
0.00148175
0.00142227
0.001365
0.00130996
0.00125608
0.00120064
0.00113888
0.00106374
0.000966472
0.00083931
0.00068104
0.000502873
0.000328373
0.000183683
8.44425e-05
2.99959e-05
7.49304e-06
1.14634e-06
8.89094e-08
2.76543e-09
2.7048e-11
3.73554e-13
3.10775e-13
3.10509e-13
3.10152e-13
3.08817e-13
3.05114e-13
2.97882e-13
2.87003e-13
2.73609e-13
2.59478e-13
2.46098e-13
2.34121e-13
2.23451e-13
2.13634e-13
2.04192e-13
1.94796e-13
1.85294e-13
1.75687e-13
1.66055e-13
1.565e-13
1.47099e-13
1.3789e-13
1.28869e-13
1.20007e-13
1.11264e-13
1.02603e-13
9.40021e-14
8.54468e-14
0.137164
0.137164
0.137164
0.137164
0.137164
0.137164
0.137164
0.137164
0.137164
0.137164
0.137164
0.137164
0.137164
0.137164
0.137164
0.137164
0.137164
0.137164
0.137164
0.137164
0.137164
0.137164
0.137164
0.137164
0.137164
0.137164
0.137164
0.137164
0.137164
0.137164
0.137164
0.137164
0.137164
0.137164
0.137164
0.137164
0.137164
0.137164
0.137164
0.137164
0.137164
0.137164
0.137164
0.137164
0.137164
0.137164
0.137164
0.137164
0.137164
0.137164
0.137164
0.137164
0.137164
0.137164
0.137164
0.137164
0.137164
0.137164
0.137164
0.137164
0.137164
0.137164
0.137164
0.137164
0.137164
0.137164
0.137164
0.13716
0.137122
0.136409
0.118821
0.0366563
0.0070503
0.00579277
0.00563912
0.00548485
0.00532962
0.00517966
0.00503475
0.00489442
0.00475839
0.00462644
0.00449833
0.00437387
0.00425286
0.00413514
0.00402053
0.0039089
0.0038001
0.00369401
0.00359049
0.00348944
0.00339075
0.00329432
0.00320006
0.00310788
0.00301769
0.00292943
0.00284301
0.00275838
0.00267546
0.00259421
0.00251456
0.00243647
0.00235987
0.00228473
0.00221098
0.00213858
0.0020675
0.00199771
0.00192916
0.00186182
0.00179562
0.00173045
0.00166622
0.00160287
0.00154047
0.00147933
0.00141995
0.00136279
0.00130784
0.00125405
0.00119869
0.00113699
0.00106188
0.000964628
0.000837511
0.000679357
0.000501426
0.000327274
0.000182972
8.40691e-05
2.98483e-05
7.45405e-06
1.14048e-06
8.85126e-08
2.7565e-09
2.70085e-11
3.73559e-13
3.10763e-13
3.10504e-13
3.1015e-13
3.08817e-13
3.05115e-13
2.97883e-13
2.87003e-13
2.7361e-13
2.59479e-13
2.46098e-13
2.34121e-13
2.23451e-13
2.13634e-13
2.04192e-13
1.94796e-13
1.85295e-13
1.75687e-13
1.66055e-13
1.565e-13
1.471e-13
1.3789e-13
1.2887e-13
1.20007e-13
1.11264e-13
1.02603e-13
9.40022e-14
8.54469e-14
0.137164
0.137164
0.137164
0.137164
0.137164
0.137164
0.137164
0.137164
0.137164
0.137164
0.137164
0.137164
0.137164
0.137164
0.137164
0.137164
0.137164
0.137164
0.137164
0.137164
0.137164
0.137164
0.137164
0.137164
0.137164
0.137164
0.137164
0.137164
0.137164
0.137164
0.137164
0.137164
0.137164
0.137164
0.137164
0.137164
0.137164
0.137164
0.137164
0.137164
0.137164
0.137164
0.137164
0.137164
0.137164
0.137164
0.137164
0.137164
0.137164
0.137164
0.137164
0.137164
0.137164
0.137164
0.137164
0.137164
0.137164
0.137164
0.137164
0.137164
0.137164
0.137164
0.137164
0.137164
0.137164
0.137164
0.137164
0.137158
0.137096
0.135909
0.108926
0.0281567
0.00644206
0.00578005
0.00562844
0.00547282
0.00531801
0.00516863
0.0050242
0.00488432
0.00474871
0.00461715
0.00448941
0.00436529
0.00424461
0.0041272
0.00401289
0.00390153
0.00379299
0.00368714
0.00358386
0.00348304
0.00338456
0.00328833
0.00319427
0.00310227
0.00301226
0.00292416
0.00283791
0.00275343
0.00267066
0.00258955
0.00251005
0.00243208
0.00235562
0.0022806
0.00220697
0.00213469
0.00206373
0.00199405
0.00192561
0.00185838
0.00179228
0.00172723
0.0016631
0.00159985
0.00153756
0.00147653
0.00141725
0.0013602
0.00130536
0.00125166
0.00119639
0.00113473
0.00105965
0.000962406
0.00083532
0.00067729
0.000499632
0.000325898
0.000182072
8.3589e-05
2.96543e-05
7.40118e-06
1.13216e-06
8.7903e-08
2.74081e-09
2.69067e-11
3.73436e-13
3.10735e-13
3.10488e-13
3.10144e-13
3.08818e-13
3.05117e-13
2.97884e-13
2.87005e-13
2.7361e-13
2.59479e-13
2.46099e-13
2.34122e-13
2.23452e-13
2.13634e-13
2.04193e-13
1.94796e-13
1.85295e-13
1.75687e-13
1.66056e-13
1.565e-13
1.471e-13
1.37891e-13
1.2887e-13
1.20008e-13
1.11264e-13
1.02603e-13
9.40023e-14
8.5447e-14
0.137164
0.137164
0.137164
0.137164
0.137164
0.137164
0.137164
0.137164
0.137164
0.137164
0.137164
0.137164
0.137164
0.137164
0.137164
0.137164
0.137164
0.137164
0.137164
0.137164
0.137164
0.137164
0.137164
0.137164
0.137164
0.137164
0.137164
0.137164
0.137164
0.137164
0.137164
0.137164
0.137164
0.137164
0.137164
0.137164
0.137164
0.137164
0.137164
0.137164
0.137164
0.137164
0.137164
0.137164
0.137164
0.137164
0.137164
0.137164
0.137164
0.137164
0.137164
0.137164
0.137164
0.137164
0.137164
0.137164
0.137164
0.137164
0.137164
0.137164
0.137164
0.137164
0.137164
0.137164
0.137164
0.137164
0.137163
0.137155
0.137051
0.134977
0.094496
0.0206726
0.00612098
0.00576744
0.00561653
0.00545977
0.00530551
0.00515671
0.00501279
0.00487338
0.00473821
0.00460706
0.00447971
0.00435596
0.00423562
0.00411853
0.00400453
0.00389347
0.0037852
0.00367962
0.00357658
0.003476
0.00337774
0.00328173
0.00318787
0.00309607
0.00300624
0.00291833
0.00283225
0.00274793
0.00266533
0.00258437
0.00250501
0.00242719
0.00235087
0.00227598
0.00220248
0.00213033
0.00205949
0.00198993
0.00192161
0.0018545
0.00178852
0.00172358
0.00165956
0.00159642
0.00153424
0.00147332
0.00141416
0.00135723
0.00130251
0.00124891
0.00119372
0.00113211
0.00105704
0.000959783
0.000832714
0.000674811
0.000497465
0.000324224
0.000180967
8.29928e-05
2.94094e-05
7.33273e-06
1.12098e-06
8.7036e-08
2.71647e-09
2.67159e-11
3.73072e-13
3.10677e-13
3.10452e-13
3.10125e-13
3.08814e-13
3.0512e-13
2.97887e-13
2.87007e-13
2.73612e-13
2.5948e-13
2.46099e-13
2.34122e-13
2.23452e-13
2.13635e-13
2.04193e-13
1.94796e-13
1.85295e-13
1.75688e-13
1.66056e-13
1.56501e-13
1.471e-13
1.37891e-13
1.2887e-13
1.20008e-13
1.11264e-13
1.02603e-13
9.40025e-14
8.54471e-14
0.137164
0.137164
0.137164
0.137164
0.137164
0.137164
0.137164
0.137164
0.137164
0.137164
0.137164
0.137164
0.137164
0.137164
0.137164
0.137164
0.137164
0.137164
0.137164
0.137164
0.137164
0.137164
0.137164
0.137164
0.137164
0.137164
0.137164
0.137164
0.137164
0.137164
0.137164
0.137164
0.137164
0.137164
0.137164
0.137164
0.137164
0.137164
0.137164
0.137164
0.137164
0.137164
0.137164
0.137164
0.137164
0.137164
0.137164
0.137164
0.137164
0.137164
0.137164
0.137164
0.137164
0.137164
0.137164
0.137164
0.137164
0.137164
0.137164
0.137164
0.137164
0.137164
0.137164
0.137164
0.137164
0.137164
0.137162
0.137148
0.136969
0.13318
0.0769734
0.014612
0.0059757
0.00575467
0.00560319
0.00544576
0.00529215
0.00514395
0.00500056
0.00486163
0.00472693
0.00459621
0.00446927
0.0043459
0.00422593
0.00410918
0.00399549
0.00388474
0.00377676
0.00367145
0.00356868
0.00346834
0.00337033
0.00327454
0.00318089
0.0030893
0.00299967
0.00291195
0.00282605
0.00274191
0.00265947
0.00257868
0.00249947
0.00242181
0.00234563
0.00227088
0.00219752
0.00212551
0.0020548
0.00198537
0.00191717
0.00185018
0.00178433
0.0017195
0.00165561
0.00159259
0.00153052
0.00146972
0.00141069
0.00135388
0.00129928
0.00124579
0.00119068
0.00112911
0.00105403
0.000956745
0.000829674
0.000671899
0.000494903
0.000322231
0.000179643
8.22717e-05
2.91092e-05
7.24715e-06
1.1066e-06
8.58707e-08
2.68146e-09
2.64102e-11
3.72375e-13
3.10571e-13
3.10382e-13
3.10083e-13
3.08798e-13
3.05119e-13
2.9789e-13
2.8701e-13
2.73614e-13
2.59482e-13
2.461e-13
2.34123e-13
2.23453e-13
2.13635e-13
2.04193e-13
1.94797e-13
1.85296e-13
1.75688e-13
1.66056e-13
1.56501e-13
1.471e-13
1.37891e-13
1.2887e-13
1.20008e-13
1.11264e-13
1.02603e-13
9.40026e-14
8.54473e-14
0.137164
0.137164
0.137164
0.137164
0.137164
0.137164
0.137164
0.137164
0.137164
0.137164
0.137164
0.137164
0.137164
0.137164
0.137164
0.137164
0.137164
0.137164
0.137164
0.137164
0.137164
0.137164
0.137164
0.137164
0.137164
0.137164
0.137164
0.137164
0.137164
0.137164
0.137164
0.137164
0.137164
0.137164
0.137164
0.137164
0.137164
0.137164
0.137164
0.137164
0.137164
0.137164
0.137164
0.137164
0.137164
0.137164
0.137164
0.137164
0.137164
0.137164
0.137164
0.137164
0.137164
0.137164
0.137164
0.137164
0.137164
0.137164
0.137164
0.137164
0.137164
0.137164
0.137164
0.137164
0.137164
0.137164
0.137161
0.137137
0.136808
0.129629
0.0591496
0.0104195
0.00591463
0.00574154
0.00558846
0.00543089
0.00527798
0.0051304
0.00498755
0.00484913
0.00471491
0.00458464
0.00445812
0.00433515
0.00421555
0.00409916
0.00398581
0.00387537
0.0037677
0.00366268
0.00356018
0.0034601
0.00336234
0.00326679
0.00317337
0.00308199
0.00299257
0.00290504
0.00281933
0.00273538
0.00265312
0.00257249
0.00249345
0.00241595
0.00233992
0.00226532
0.00219211
0.00212024
0.00204967
0.00198037
0.00191231
0.00184544
0.00177971
0.00171502
0.00165124
0.00158834
0.0015264
0.00146573
0.00140682
0.00135014
0.00129567
0.0012423
0.00118726
0.00112573
0.00105062
0.000953277
0.000826182
0.000668534
0.000491926
0.000319904
0.000178087
8.14187e-05
2.87505e-05
7.14325e-06
1.08875e-06
8.43754e-08
2.63411e-09
2.59676e-11
3.71234e-13
3.10402e-13
3.10261e-13
3.1e-13
3.08757e-13
3.05108e-13
2.97889e-13
2.87012e-13
2.73617e-13
2.59484e-13
2.46102e-13
2.34124e-13
2.23453e-13
2.13635e-13
2.04194e-13
1.94797e-13
1.85296e-13
1.75688e-13
1.66056e-13
1.56501e-13
1.471e-13
1.37891e-13
1.2887e-13
1.20008e-13
1.11264e-13
1.02604e-13
9.40027e-14
8.54474e-14
0.137164
0.137164
0.137164
0.137164
0.137164
0.137164
0.137164
0.137164
0.137164
0.137164
0.137164
0.137164
0.137164
0.137164
0.137164
0.137164
0.137164
0.137164
0.137164
0.137164
0.137164
0.137164
0.137164
0.137164
0.137164
0.137164
0.137164
0.137164
0.137164
0.137164
0.137164
0.137164
0.137164
0.137164
0.137164
0.137164
0.137164
0.137164
0.137164
0.137164
0.137164
0.137164
0.137164
0.137164
0.137164
0.137164
0.137164
0.137164
0.137164
0.137164
0.137164
0.137164
0.137164
0.137164
0.137164
0.137164
0.137164
0.137164
0.137164
0.137164
0.137164
0.137164
0.137164
0.137164
0.137164
0.137163
0.137159
0.137115
0.13648
0.122826
0.0431619
0.00785816
0.00588637
0.00572782
0.00557258
0.00541523
0.00526307
0.0051161
0.00497381
0.00483593
0.0047022
0.00457239
0.00444631
0.00432375
0.00420455
0.00408852
0.00397552
0.00386542
0.00375806
0.00365333
0.00355112
0.00345131
0.0033538
0.0032585
0.00316532
0.00307416
0.00298496
0.00289764
0.00281213
0.00272836
0.00264629
0.00256584
0.00248697
0.00240963
0.00233376
0.00225932
0.00218626
0.00211453
0.0020441
0.00197494
0.00190702
0.00184029
0.00177469
0.00171012
0.00164648
0.0015837
0.00152189
0.00146135
0.00140257
0.00134603
0.0012917
0.00123843
0.00118347
0.00112195
0.0010468
0.000949371
0.000822225
0.000664701
0.00048852
0.000317229
0.000176291
8.04284e-05
2.83308e-05
7.02023e-06
1.06724e-06
8.25283e-08
2.57323e-09
2.53691e-11
3.69514e-13
3.10139e-13
3.10073e-13
3.09864e-13
3.08678e-13
3.05075e-13
2.97878e-13
2.8701e-13
2.73619e-13
2.59487e-13
2.46104e-13
2.34125e-13
2.23454e-13
2.13636e-13
2.04194e-13
1.94797e-13
1.85296e-13
1.75689e-13
1.66057e-13
1.56501e-13
1.47101e-13
1.37891e-13
1.2887e-13
1.20008e-13
1.11265e-13
1.02604e-13
9.40028e-14
8.54475e-14
0.137164
0.137164
0.137164
0.137164
0.137164
0.137164
0.137164
0.137164
0.137164
0.137164
0.137164
0.137164
0.137164
0.137164
0.137164
0.137164
0.137164
0.137164
0.137164
0.137164
0.137164
0.137164
0.137164
0.137164
0.137164
0.137164
0.137164
0.137164
0.137164
0.137164
0.137164
0.137164
0.137164
0.137164
0.137164
0.137164
0.137164
0.137164
0.137164
0.137164
0.137164
0.137164
0.137164
0.137164
0.137164
0.137164
0.137164
0.137164
0.137164
0.137164
0.137164
0.137164
0.137164
0.137164
0.137164
0.137164
0.137164
0.137164
0.137164
0.137164
0.137164
0.137164
0.137164
0.137164
0.137164
0.137163
0.137154
0.137072
0.135786
0.110152
0.0297039
0.00663445
0.00586736
0.00571322
0.00555576
0.00539886
0.00524745
0.00510112
0.00495941
0.00482206
0.00468884
0.00455952
0.00443389
0.00431176
0.00419295
0.00407731
0.00396467
0.0038549
0.00374787
0.00364345
0.00354153
0.003442
0.00334476
0.00324972
0.00315677
0.00306585
0.00297687
0.00288977
0.00280446
0.00272089
0.00263901
0.00255874
0.00248005
0.00240288
0.00232717
0.00225289
0.00217999
0.00210841
0.00203813
0.00196911
0.00190133
0.00183474
0.00176927
0.00170484
0.00164132
0.00157868
0.00151699
0.00145658
0.00139795
0.00134155
0.00128735
0.0012342
0.0011793
0.00111779
0.00104257
0.000945021
0.000817796
0.00066039
0.000484672
0.000314197
0.000174248
7.92974e-05
2.78489e-05
6.87769e-06
1.04199e-06
8.03143e-08
2.49809e-09
2.4604e-11
3.67092e-13
3.09741e-13
3.09784e-13
3.09657e-13
3.08548e-13
3.05007e-13
2.97845e-13
2.86997e-13
2.73617e-13
2.59489e-13
2.46107e-13
2.34127e-13
2.23456e-13
2.13637e-13
2.04195e-13
1.94798e-13
1.85297e-13
1.75689e-13
1.66057e-13
1.56502e-13
1.47101e-13
1.37892e-13
1.28871e-13
1.20008e-13
1.11265e-13
1.02604e-13
9.4003e-14
8.54476e-14
0.137164
0.137164
0.137164
0.137164
0.137164
0.137164
0.137164
0.137164
0.137164
0.137164
0.137164
0.137164
0.137164
0.137164
0.137164
0.137164
0.137164
0.137164
0.137164
0.137164
0.137164
0.137164
0.137164
0.137164
0.137164
0.137164
0.137164
0.137164
0.137164
0.137164
0.137164
0.137164
0.137164
0.137164
0.137164
0.137164
0.137164
0.137164
0.137164
0.137164
0.137164
0.137164
0.137164
0.137164
0.137164
0.137164
0.137164
0.137164
0.137164
0.137164
0.137164
0.137164
0.137164
0.137164
0.137164
0.137164
0.137164
0.137164
0.137164
0.137164
0.137164
0.137164
0.137164
0.137164
0.137164
0.137162
0.137146
0.136987
0.134267
0.0900266
0.019207
0.00616991
0.00585049
0.00569726
0.00553808
0.00538186
0.0052312
0.0050855
0.00494438
0.0048076
0.0046749
0.00454606
0.00442089
0.0042992
0.00418081
0.00406555
0.00395329
0.00384387
0.00373717
0.00363307
0.00353145
0.00343221
0.00333525
0.00324046
0.00314777
0.00305709
0.00296834
0.00288145
0.00279635
0.00271299
0.0026313
0.00255122
0.00247271
0.00239571
0.00232018
0.00224606
0.00217331
0.00210189
0.00203176
0.00196289
0.00189525
0.0018288
0.00176347
0.00169917
0.00163578
0.00157327
0.00151172
0.00145145
0.00139295
0.0013367
0.00128264
0.0012296
0.00117477
0.00111324
0.00103793
0.000940222
0.000812886
0.000655591
0.000480375
0.0003108
0.000171954
7.80237e-05
2.73043e-05
6.71551e-06
1.01295e-06
7.77293e-08
2.40841e-09
2.36676e-11
3.63953e-13
3.09189e-13
3.0934e-13
3.09322e-13
3.08341e-13
3.04889e-13
2.97778e-13
2.86961e-13
2.73604e-13
2.59488e-13
2.46109e-13
2.3413e-13
2.23458e-13
2.13638e-13
2.04196e-13
1.94798e-13
1.85297e-13
1.75689e-13
1.66057e-13
1.56502e-13
1.47101e-13
1.37892e-13
1.28871e-13
1.20009e-13
1.11265e-13
1.02604e-13
9.40032e-14
8.54478e-14
0.137164
0.137164
0.137164
0.137164
0.137164
0.137164
0.137164
0.137164
0.137164
0.137164
0.137164
0.137164
0.137164
0.137164
0.137164
0.137164
0.137164
0.137164
0.137164
0.137164
0.137164
0.137164
0.137164
0.137164
0.137164
0.137164
0.137164
0.137164
0.137164
0.137164
0.137164
0.137164
0.137164
0.137164
0.137164
0.137164
0.137164
0.137164
0.137164
0.137164
0.137164
0.137164
0.137164
0.137164
0.137164
0.137164
0.137164
0.137164
0.137164
0.137164
0.137164
0.137164
0.137164
0.137164
0.137164
0.137164
0.137164
0.137164
0.137164
0.137164
0.137164
0.137164
0.137164
0.137164
0.137163
0.137159
0.13713
0.136804
0.130835
0.0664852
0.0120872
0.00602542
0.0058342
0.00567955
0.00551969
0.00536428
0.00521436
0.0050693
0.00492879
0.00479257
0.0046604
0.00453207
0.00440738
0.00428613
0.00416816
0.00405331
0.00394142
0.00383236
0.003726
0.00362223
0.00352092
0.00342197
0.00332529
0.00323077
0.00313833
0.0030479
0.00295938
0.00287272
0.00278784
0.00270468
0.00262319
0.00254331
0.00246498
0.00238816
0.0023128
0.00223884
0.00216626
0.00209499
0.00202501
0.00195629
0.00188879
0.00182249
0.0017573
0.00169313
0.00162988
0.0015675
0.00150608
0.00144594
0.0013876
0.0013315
0.00127757
0.00122465
0.00116987
0.00110831
0.00103287
0.000934973
0.000807492
0.000650299
0.000475622
0.000307036
0.000169406
7.66072e-05
2.66973e-05
6.53391e-06
9.80193e-07
7.47806e-08
2.3046e-09
2.25617e-11
3.60124e-13
3.08445e-13
3.08692e-13
3.08824e-13
3.08011e-13
3.04702e-13
2.97664e-13
2.86888e-13
2.73568e-13
2.59477e-13
2.46109e-13
2.34133e-13
2.23461e-13
2.1364e-13
2.04197e-13
1.94799e-13
1.85297e-13
1.7569e-13
1.66058e-13
1.56502e-13
1.47101e-13
1.37892e-13
1.28871e-13
1.20009e-13
1.11265e-13
1.02604e-13
9.40033e-14
8.54479e-14
0.137164
0.137164
0.137164
0.137164
0.137164
0.137164
0.137164
0.137164
0.137164
0.137164
0.137164
0.137164
0.137164
0.137164
0.137164
0.137164
0.137164
0.137164
0.137164
0.137164
0.137164
0.137164
0.137164
0.137164
0.137164
0.137164