/*--------------------------------*- C++ -*----------------------------------*\
  =========                 |
  \\      /  F ield         | OpenFOAM: The Open Source CFD Toolbox
   \\    /   O peration     | Website:  https://openfoam.org
    \\  /    A nd           | Version:  13
     \\/     M anipulation  |
\*---------------------------------------------------------------------------*/
FoamFile
{
    format      ascii;
    class       volScalarField;
    location    "0.0016";
    object      H2O;
}
// * * * * * * * * * * * * * * * * * * * * * * * * * * * * * * * * * * * * * //

dimensions      [];

internalField   nonuniform List<scalar> 
33334
(
0.112295
0.112295
0.112295
0.112295
0.112295
0.112295
0.112295
0.112295
0.112295
0.112295
0.112295
0.112295
0.112295
0.112295
0.112295
0.112295
0.112295
0.112295
0.112295
0.112295
0.112295
0.112295
0.112295
0.112295
0.112295
0.112295
0.112295
0.112295
0.112295
0.112295
0.112295
0.112295
0.112295
0.112295
0.112295
0.112295
0.112295
0.112295
0.112295
0.112295
0.112295
0.112295
0.112295
0.112295
0.112295
0.112295
0.112295
0.112295
0.112295
0.112295
0.112295
0.112295
0.112295
0.112295
0.112295
0.112295
0.112295
0.112295
0.112295
0.112295
0.112295
0.112295
0.112295
0.112295
0.112295
0.112295
0.112295
0.112295
0.112289
0.11221
0.110182
0.0701765
0.0138897
0.00486756
0.00465554
0.004533
0.00440527
0.00428015
0.00415945
0.00404266
0.0039295
0.00381978
0.00371333
0.00361003
0.0035097
0.00341215
0.00331721
0.00322476
0.00313469
0.00304688
0.00296124
0.00287766
0.00279605
0.00271634
0.00263843
0.00256227
0.00248777
0.00241487
0.00234351
0.00227364
0.0022052
0.00213814
0.00207242
0.00200799
0.00194481
0.00188283
0.00182201
0.00176231
0.0017037
0.00164615
0.00158963
0.00153411
0.00147953
0.00142581
0.00137285
0.00132062
0.00126917
0.00121875
0.00116976
0.0011226
0.00107725
0.00103285
0.000987194
0.000936371
0.000874579
0.000794627
0.000690134
0.00056007
0.000413614
0.000270121
0.000151106
6.94548e-05
2.46551e-05
6.1493e-06
9.38253e-07
7.24937e-08
2.2443e-09
2.1841e-11
3.04924e-13
2.54482e-13
2.54263e-13
2.53967e-13
2.52871e-13
2.49834e-13
2.43905e-13
2.34992e-13
2.24022e-13
2.12451e-13
2.01496e-13
1.91691e-13
1.82956e-13
1.74917e-13
1.67187e-13
1.59493e-13
1.51713e-13
1.43846e-13
1.35959e-13
1.28135e-13
1.20438e-13
1.12898e-13
1.05512e-13
9.82557e-14
9.10966e-14
8.40054e-14
7.69633e-14
6.99584e-14
0.112295
0.112295
0.112295
0.112295
0.112295
0.112295
0.112295
0.112295
0.112295
0.112295
0.112295
0.112295
0.112295
0.112295
0.112295
0.112295
0.112295
0.112295
0.112295
0.112295
0.112295
0.112295
0.112295
0.112295
0.112295
0.112295
0.112295
0.112295
0.112295
0.112295
0.112295
0.112295
0.112295
0.112295
0.112295
0.112295
0.112295
0.112295
0.112295
0.112295
0.112295
0.112295
0.112295
0.112295
0.112295
0.112295
0.112295
0.112295
0.112295
0.112295
0.112295
0.112295
0.112295
0.112295
0.112295
0.112295
0.112295
0.112295
0.112295
0.112295
0.112295
0.112295
0.112295
0.112295
0.112295
0.112295
0.112295
0.112295
0.11229
0.112214
0.11026
0.070953
0.0141816
0.00487185
0.00465404
0.00453156
0.00440393
0.00427889
0.0041583
0.00404166
0.00392871
0.00381923
0.00371303
0.00360987
0.00350957
0.00341202
0.00331709
0.00322466
0.0031346
0.0030468
0.00296117
0.0028776
0.002796
0.00271629
0.00263839
0.00256223
0.00248773
0.00241483
0.00234348
0.00227361
0.00220518
0.00213812
0.0020724
0.00200798
0.00194479
0.00188281
0.00182199
0.0017623
0.00170369
0.00164614
0.00158963
0.00153411
0.00147953
0.00142581
0.00137285
0.00132062
0.00126917
0.00121875
0.00116977
0.00112261
0.00107726
0.00103286
0.00098721
0.000936398
0.000874628
0.00079471
0.000690262
0.000560236
0.000413784
0.00027026
0.000151195
6.94999e-05
2.46725e-05
6.15415e-06
9.39128e-07
7.25778e-08
2.24762e-09
2.18814e-11
3.05035e-13
2.54477e-13
2.54257e-13
2.53962e-13
2.52866e-13
2.49831e-13
2.43904e-13
2.34992e-13
2.24022e-13
2.12452e-13
2.01496e-13
1.91691e-13
1.82955e-13
1.74917e-13
1.67186e-13
1.59492e-13
1.51712e-13
1.43845e-13
1.35959e-13
1.28135e-13
1.20438e-13
1.12897e-13
1.05511e-13
9.82552e-14
9.10961e-14
8.40049e-14
7.69628e-14
6.9958e-14
0.112295
0.112295
0.112295
0.112295
0.112295
0.112295
0.112295
0.112295
0.112295
0.112295
0.112295
0.112295
0.112295
0.112295
0.112295
0.112295
0.112295
0.112295
0.112295
0.112295
0.112295
0.112295
0.112295
0.112295
0.112295
0.112295
0.112295
0.112295
0.112295
0.112295
0.112295
0.112295
0.112295
0.112295
0.112295
0.112295
0.112295
0.112295
0.112295
0.112295
0.112295
0.112295
0.112295
0.112295
0.112295
0.112295
0.112295
0.112295
0.112295
0.112295
0.112295
0.112295
0.112295
0.112295
0.112295
0.112295
0.112295
0.112295
0.112295
0.112295
0.112295
0.112295
0.112295
0.112295
0.112295
0.112295
0.112295
0.112295
0.112289
0.112203
0.109985
0.0683508
0.0133402
0.0048536
0.0046514
0.00452896
0.00440141
0.00427663
0.0041563
0.00403991
0.00392715
0.00381781
0.00371168
0.00360855
0.00350831
0.00341082
0.00331595
0.00322357
0.00313356
0.00304581
0.00296022
0.00287669
0.00279513
0.00271546
0.0026376
0.00256147
0.00248701
0.00241414
0.00234282
0.00227298
0.00220457
0.00213754
0.00207185
0.00200745
0.00194429
0.00188233
0.00182154
0.00176186
0.00170327
0.00164574
0.00158925
0.00153375
0.00147919
0.00142549
0.00137255
0.00132033
0.0012689
0.0012185
0.00116954
0.00112239
0.00107706
0.00103268
0.00098705
0.000936268
0.000874537
0.000794671
0.000690285
0.000560316
0.000413904
0.000270392
0.000151306
6.95698e-05
2.47048e-05
6.16419e-06
9.40998e-07
7.27516e-08
2.25401e-09
2.19538e-11
3.0522e-13
2.54464e-13
2.54245e-13
2.5395e-13
2.52855e-13
2.49821e-13
2.43897e-13
2.34987e-13
2.24019e-13
2.12449e-13
2.01493e-13
1.91687e-13
1.82951e-13
1.74913e-13
1.67182e-13
1.59488e-13
1.51709e-13
1.43842e-13
1.35956e-13
1.28132e-13
1.20435e-13
1.12895e-13
1.05509e-13
9.8253e-14
9.10941e-14
8.40031e-14
7.69612e-14
6.99566e-14
0.112295
0.112295
0.112295
0.112295
0.112295
0.112295
0.112295
0.112295
0.112295
0.112295
0.112295
0.112295
0.112295
0.112295
0.112295
0.112295
0.112295
0.112295
0.112295
0.112295
0.112295
0.112295
0.112295
0.112295
0.112295
0.112295
0.112295
0.112295
0.112295
0.112295
0.112295
0.112295
0.112295
0.112295
0.112295
0.112295
0.112295
0.112295
0.112295
0.112295
0.112295
0.112295
0.112295
0.112295
0.112295
0.112295
0.112295
0.112295
0.112295
0.112295
0.112295
0.112295
0.112295
0.112295
0.112295
0.112295
0.112295
0.112295
0.112295
0.112295
0.112295
0.112295
0.112295
0.112295
0.112295
0.112295
0.112295
0.112295
0.112288
0.112187
0.109552
0.0642336
0.0121039
0.00482855
0.00464792
0.00452537
0.00439783
0.00427331
0.00415319
0.00403695
0.0039243
0.00381503
0.00370897
0.00360594
0.00350582
0.00340844
0.00331368
0.0032214
0.00313148
0.00304382
0.00295832
0.00287487
0.00279339
0.00271379
0.002636
0.00255994
0.00248554
0.00241274
0.00234148
0.0022717
0.00220334
0.00213637
0.00207073
0.00200637
0.00194326
0.00188135
0.00182059
0.00176096
0.00170241
0.00164492
0.00158847
0.00153301
0.00147848
0.00142482
0.00137192
0.00131974
0.00126834
0.00121797
0.00116904
0.00112193
0.00107663
0.00103229
0.000986696
0.000935958
0.00087428
0.000794475
0.000690146
0.000560234
0.000413879
0.00027041
0.000151342
6.96033e-05
2.47256e-05
6.17256e-06
9.42844e-07
7.29389e-08
2.2611e-09
2.20338e-11
3.05417e-13
2.54449e-13
2.5423e-13
2.53935e-13
2.52841e-13
2.49809e-13
2.43887e-13
2.34979e-13
2.24012e-13
2.12442e-13
2.01487e-13
1.91681e-13
1.82945e-13
1.74907e-13
1.67176e-13
1.59483e-13
1.51704e-13
1.43838e-13
1.35952e-13
1.28128e-13
1.20432e-13
1.12892e-13
1.05506e-13
9.82506e-14
9.10919e-14
8.40012e-14
7.69596e-14
6.99552e-14
0.112295
0.112295
0.112295
0.112295
0.112295
0.112295
0.112295
0.112295
0.112295
0.112295
0.112295
0.112295
0.112295
0.112295
0.112295
0.112295
0.112295
0.112295
0.112295
0.112295
0.112295
0.112295
0.112295
0.112295
0.112295
0.112295
0.112295
0.112295
0.112295
0.112295
0.112295
0.112295
0.112295
0.112295
0.112295
0.112295
0.112295
0.112295
0.112295
0.112295
0.112295
0.112295
0.112295
0.112295
0.112295
0.112295
0.112295
0.112295
0.112295
0.112295
0.112295
0.112295
0.112295
0.112295
0.112295
0.112295
0.112295
0.112295
0.112295
0.112295
0.112295
0.112295
0.112295
0.112295
0.112295
0.112295
0.112295
0.112294
0.112286
0.112156
0.108777
0.0585979
0.0105915
0.00480369
0.00464352
0.00452063
0.00439304
0.00426875
0.00414882
0.00403273
0.00392022
0.00381111
0.00370521
0.00360236
0.00350239
0.00340517
0.00331055
0.0032184
0.00312862
0.00304108
0.0029557
0.00287236
0.00279098
0.00271149
0.00263379
0.00255783
0.00248351
0.0024108
0.00233961
0.00226991
0.00220163
0.00213472
0.00206915
0.00200486
0.00194181
0.00187996
0.00181926
0.00175969
0.00170119
0.00164376
0.00158735
0.00153194
0.00147746
0.00142385
0.00137099
0.00131886
0.00126751
0.00121719
0.0011683
0.00112123
0.00107597
0.00103168
0.000986131
0.000935437
0.000873808
0.000794059
0.000689799
0.000559966
0.000413692
0.000270293
0.000151282
6.95831e-05
2.47236e-05
6.17419e-06
9.43549e-07
7.3042e-08
2.26617e-09
2.20996e-11
3.0559e-13
2.54439e-13
2.54219e-13
2.53925e-13
2.52831e-13
2.49799e-13
2.43878e-13
2.34972e-13
2.24006e-13
2.12436e-13
2.01482e-13
1.91676e-13
1.8294e-13
1.74902e-13
1.67172e-13
1.59479e-13
1.51701e-13
1.43835e-13
1.35949e-13
1.28126e-13
1.2043e-13
1.1289e-13
1.05505e-13
9.82493e-14
9.10908e-14
8.40002e-14
7.69588e-14
6.99546e-14
0.112295
0.112295
0.112295
0.112295
0.112295
0.112295
0.112295
0.112295
0.112295
0.112295
0.112295
0.112295
0.112295
0.112295
0.112295
0.112295
0.112295
0.112295
0.112295
0.112295
0.112295
0.112295
0.112295
0.112295
0.112295
0.112295
0.112295
0.112295
0.112295
0.112295
0.112295
0.112295
0.112295
0.112295
0.112295
0.112295
0.112295
0.112295
0.112295
0.112295
0.112295
0.112295
0.112295
0.112295
0.112295
0.112295
0.112295
0.112295
0.112295
0.112295
0.112295
0.112295
0.112295
0.112295
0.112295
0.112295
0.112295
0.112295
0.112295
0.112295
0.112295
0.112295
0.112295
0.112295
0.112295
0.112295
0.112295
0.112294
0.112284
0.112111
0.10755
0.0520022
0.00910997
0.00478301
0.00463809
0.00451463
0.00438703
0.00426302
0.00414333
0.00402748
0.0039152
0.00380632
0.00370064
0.003598
0.00349823
0.00340119
0.00330674
0.00321475
0.00312512
0.00303773
0.00295248
0.00286928
0.00278803
0.00270865
0.00263107
0.00255521
0.002481
0.00240838
0.00233729
0.00226767
0.00219948
0.00213266
0.00206716
0.00200295
0.00193997
0.00187819
0.00181756
0.00175805
0.00169962
0.00164224
0.0015859
0.00153054
0.00147613
0.00142256
0.00136977
0.00131768
0.00126639
0.00121612
0.00116729
0.00112027
0.00107507
0.00103083
0.000985329
0.000934679
0.000873094
0.000793392
0.000689192
0.000559441
0.000413276
0.000270006
0.000151116
6.95072e-05
2.46986e-05
6.16904e-06
9.43101e-07
7.30485e-08
2.26795e-09
2.21353e-11
3.05709e-13
2.54434e-13
2.54215e-13
2.5392e-13
2.52826e-13
2.49795e-13
2.43874e-13
2.34968e-13
2.24002e-13
2.12434e-13
2.01479e-13
1.91673e-13
1.82938e-13
1.749e-13
1.67171e-13
1.59478e-13
1.51699e-13
1.43834e-13
1.35948e-13
1.28125e-13
1.20429e-13
1.12889e-13
1.05504e-13
9.82489e-14
9.10905e-14
8.4e-14
7.69586e-14
6.99545e-14
0.112295
0.112295
0.112295
0.112295
0.112295
0.112295
0.112295
0.112295
0.112295
0.112295
0.112295
0.112295
0.112295
0.112295
0.112295
0.112295
0.112295
0.112295
0.112295
0.112295
0.112295
0.112295
0.112295
0.112295
0.112295
0.112295
0.112295
0.112295
0.112295
0.112295
0.112295
0.112295
0.112295
0.112295
0.112295
0.112295
0.112295
0.112295
0.112295
0.112295
0.112295
0.112295
0.112295
0.112295
0.112295
0.112295
0.112295
0.112295
0.112295
0.112295
0.112295
0.112295
0.112295
0.112295
0.112295
0.112295
0.112295
0.112295
0.112295
0.112295
0.112295
0.112295
0.112295
0.112295
0.112295
0.112295
0.112295
0.112294
0.112279
0.112032
0.105597
0.044765
0.00772311
0.00476661
0.00463175
0.00450751
0.00437998
0.00425634
0.00413697
0.0040214
0.00390941
0.00380079
0.00369536
0.00359294
0.00349339
0.00339655
0.00330229
0.00321049
0.00312103
0.00303381
0.00294871
0.00286565
0.00278454
0.0027053
0.00262784
0.0025521
0.00247801
0.00240549
0.00233451
0.00226499
0.00219689
0.00213016
0.00206476
0.00200063
0.00193773
0.00187603
0.00181547
0.00175603
0.00169767
0.00164037
0.00158409
0.0015288
0.00147445
0.00142095
0.00136822
0.0013162
0.00126497
0.00121476
0.00116599
0.00111904
0.0010739
0.00102972
0.000984275
0.000933669
0.000872121
0.000792457
0.000688307
0.000558642
0.000412615
0.000269523
0.000150817
6.93578e-05
2.46438e-05
6.15627e-06
9.41551e-07
7.29745e-08
2.26727e-09
2.2147e-11
3.0578e-13
2.54432e-13
2.54213e-13
2.53919e-13
2.52825e-13
2.49794e-13
2.43873e-13
2.34967e-13
2.24002e-13
2.12433e-13
2.01478e-13
1.91673e-13
1.82938e-13
1.749e-13
1.6717e-13
1.59477e-13
1.51699e-13
1.43833e-13
1.35948e-13
1.28125e-13
1.20429e-13
1.12889e-13
1.05504e-13
9.82489e-14
9.10905e-14
8.4e-14
7.69586e-14
6.99545e-14
0.112295
0.112295
0.112295
0.112295
0.112295
0.112295
0.112295
0.112295
0.112295
0.112295
0.112295
0.112295
0.112295
0.112295
0.112295
0.112295
0.112295
0.112295
0.112295
0.112295
0.112295
0.112295
0.112295
0.112295
0.112295
0.112295
0.112295
0.112295
0.112295
0.112295
0.112295
0.112295
0.112295
0.112295
0.112295
0.112295
0.112295
0.112295
0.112295
0.112295
0.112295
0.112295
0.112295
0.112295
0.112295
0.112295
0.112295
0.112295
0.112295
0.112295
0.112295
0.112295
0.112295
0.112295
0.112295
0.112295
0.112295
0.112295
0.112295
0.112295
0.112295
0.112295
0.112295
0.112295
0.112295
0.112295
0.112295
0.112293
0.112272
0.111904
0.102423
0.0373245
0.00658476
0.00475362
0.00462461
0.0044994
0.00437205
0.00424883
0.00412981
0.00401458
0.00390289
0.00379455
0.00368939
0.00358722
0.0034879
0.00339129
0.00329724
0.00320564
0.00311636
0.00302931
0.00294438
0.00286148
0.00278053
0.00270142
0.00262411
0.00254849
0.00247453
0.00240213
0.00233126
0.00226186
0.00219386
0.00212723
0.00206192
0.00199788
0.00193508
0.00187346
0.00181299
0.00175363
0.00169535
0.00163812
0.00158192
0.00152671
0.00147243
0.001419
0.00136634
0.00131439
0.00126323
0.0012131
0.0011644
0.00111752
0.00107245
0.00102834
0.000982955
0.000932394
0.000870878
0.000791242
0.000687136
0.000557561
0.000411697
0.000268836
0.000150379
6.91324e-05
2.45573e-05
6.13449e-06
9.38495e-07
7.27893e-08
2.26403e-09
2.21439e-11
3.05826e-13
2.54428e-13
2.54211e-13
2.53919e-13
2.52825e-13
2.49794e-13
2.43873e-13
2.34967e-13
2.24001e-13
2.12433e-13
2.01478e-13
1.91673e-13
1.82938e-13
1.749e-13
1.6717e-13
1.59477e-13
1.51699e-13
1.43833e-13
1.35948e-13
1.28125e-13
1.20429e-13
1.12889e-13
1.05504e-13
9.82489e-14
9.10906e-14
8.40001e-14
7.69587e-14
6.99546e-14
0.112295
0.112295
0.112295
0.112295
0.112295
0.112295
0.112295
0.112295
0.112295
0.112295
0.112295
0.112295
0.112295
0.112295
0.112295
0.112295
0.112295
0.112295
0.112295
0.112295
0.112295
0.112295
0.112295
0.112295
0.112295
0.112295
0.112295
0.112295
0.112295
0.112295
0.112295
0.112295
0.112295
0.112295
0.112295
0.112295
0.112295
0.112295
0.112295
0.112295
0.112295
0.112295
0.112295
0.112295
0.112295
0.112295
0.112295
0.112295
0.112295
0.112295
0.112295
0.112295
0.112295
0.112295
0.112295
0.112295
0.112295
0.112295
0.112295
0.112295
0.112295
0.112295
0.112295
0.112295
0.112295
0.112295
0.112295
0.112292
0.11226
0.111677
0.0972774
0.0300102
0.00577202
0.00474249
0.00461669
0.0044904
0.00436331
0.00424054
0.00412191
0.00400702
0.00389565
0.00378762
0.00368274
0.00358085
0.00348178
0.0033854
0.00329157
0.00320018
0.00311111
0.00302425
0.0029395
0.00285677
0.00277598
0.00269703
0.00261986
0.00254439
0.00247056
0.0023983
0.00232755
0.00225826
0.00219038
0.00212386
0.00205865
0.00199472
0.00193201
0.00187049
0.00181011
0.00175084
0.00169265
0.0016355
0.00157938
0.00152425
0.00147006
0.00141671
0.00136412
0.00131225
0.00126117
0.00121112
0.0011625
0.0011157
0.00107072
0.00102668
0.000981357
0.00093084
0.000869351
0.000789733
0.000685663
0.000556184
0.000410513
0.000267937
0.000149798
6.88266e-05
2.44365e-05
6.10257e-06
9.33705e-07
7.24645e-08
2.25672e-09
2.21116e-11
3.0583e-13
2.54419e-13
2.54207e-13
2.53917e-13
2.52826e-13
2.49795e-13
2.43874e-13
2.34967e-13
2.24002e-13
2.12433e-13
2.01478e-13
1.91673e-13
1.82938e-13
1.749e-13
1.6717e-13
1.59478e-13
1.51699e-13
1.43834e-13
1.35948e-13
1.28125e-13
1.20429e-13
1.1289e-13
1.05504e-13
9.8249e-14
9.10907e-14
8.40002e-14
7.69588e-14
6.99547e-14
0.112295
0.112295
0.112295
0.112295
0.112295
0.112295
0.112295
0.112295
0.112295
0.112295
0.112295
0.112295
0.112295
0.112295
0.112295
0.112295
0.112295
0.112295
0.112295
0.112295
0.112295
0.112295
0.112295
0.112295
0.112295
0.112295
0.112295
0.112295
0.112295
0.112295
0.112295
0.112295
0.112295
0.112295
0.112295
0.112295
0.112295
0.112295
0.112295
0.112295
0.112295
0.112295
0.112295
0.112295
0.112295
0.112295
0.112295
0.112295
0.112295
0.112295
0.112295
0.112295
0.112295
0.112295
0.112295
0.112295
0.112295
0.112295
0.112295
0.112295
0.112295
0.112295
0.112295
0.112295
0.112295
0.112295
0.112295
0.11229
0.11224
0.111267
0.0891771
0.0230516
0.00527406
0.00473207
0.00460795
0.00448055
0.00435381
0.00423151
0.00411327
0.00399875
0.00388773
0.00378002
0.00367544
0.00357383
0.00347503
0.0033789
0.00328531
0.00319415
0.00310529
0.00301863
0.00293408
0.00285153
0.00277091
0.00269213
0.00261512
0.0025398
0.00246611
0.00239398
0.00232337
0.00225421
0.00218645
0.00212005
0.00205495
0.00199113
0.00192852
0.0018671
0.00180683
0.00174766
0.00168956
0.00163251
0.00157648
0.00152144
0.00146733
0.00141407
0.00136157
0.00130978
0.00125879
0.00120882
0.00116029
0.00111358
0.00106869
0.00102473
0.00097947
0.000928996
0.000867525
0.000787913
0.000683869
0.000554491
0.000409045
0.00026681
0.000149061
6.84336e-05
2.42777e-05
6.05928e-06
9.26893e-07
7.19654e-08
2.24388e-09
2.20283e-11
3.05729e-13
2.54396e-13
2.54194e-13
2.53912e-13
2.52826e-13
2.49797e-13
2.43875e-13
2.34968e-13
2.24002e-13
2.12433e-13
2.01479e-13
1.91673e-13
1.82938e-13
1.749e-13
1.67171e-13
1.59478e-13
1.51699e-13
1.43834e-13
1.35948e-13
1.28125e-13
1.20429e-13
1.1289e-13
1.05504e-13
9.82492e-14
9.10908e-14
8.40003e-14
7.69589e-14
6.99547e-14
0.112295
0.112295
0.112295
0.112295
0.112295
0.112295
0.112295
0.112295
0.112295
0.112295
0.112295
0.112295
0.112295
0.112295
0.112295
0.112295
0.112295
0.112295
0.112295
0.112295
0.112295
0.112295
0.112295
0.112295
0.112295
0.112295
0.112295
0.112295
0.112295
0.112295
0.112295
0.112295
0.112295
0.112295
0.112295
0.112295
0.112295
0.112295
0.112295
0.112295
0.112295
0.112295
0.112295
0.112295
0.112295
0.112295
0.112295
0.112295
0.112295
0.112295
0.112295
0.112295
0.112295
0.112295
0.112295
0.112295
0.112295
0.112295
0.112295
0.112295
0.112295
0.112295
0.112295
0.112295
0.112295
0.112295
0.112294
0.112287
0.112203
0.110505
0.077363
0.0169245
0.00501119
0.00472176
0.0045982
0.00446986
0.00434357
0.00422175
0.00410393
0.00398979
0.00387913
0.00377176
0.0036675
0.00356619
0.00346767
0.00337181
0.00327847
0.00318755
0.00309891
0.00301247
0.00292812
0.00284577
0.00276533
0.00268673
0.00260988
0.00253472
0.00246119
0.00238921
0.00231873
0.00224971
0.00218208
0.0021158
0.00205083
0.00198712
0.00192463
0.00186332
0.00180315
0.00174409
0.00168609
0.00162914
0.00157321
0.00151826
0.00146424
0.00141108
0.00135867
0.00130698
0.00125607
0.0012062
0.00115776
0.00111115
0.00106635
0.00102247
0.000977285
0.000926849
0.000865386
0.000785766
0.000681736
0.000552462
0.000407271
0.000265439
0.000148156
6.79455e-05
2.40772e-05
6.00324e-06
9.17739e-07
7.12556e-08
2.22395e-09
2.18721e-11
3.05431e-13
2.54349e-13
2.54164e-13
2.53897e-13
2.52823e-13
2.49799e-13
2.43878e-13
2.3497e-13
2.24004e-13
2.12434e-13
2.01479e-13
1.91674e-13
1.82938e-13
1.74901e-13
1.67171e-13
1.59478e-13
1.517e-13
1.43834e-13
1.35948e-13
1.28126e-13
1.20429e-13
1.1289e-13
1.05505e-13
9.82493e-14
9.10909e-14
8.40004e-14
7.6959e-14
6.99548e-14
0.112295
0.112295
0.112295
0.112295
0.112295
0.112295
0.112295
0.112295
0.112295
0.112295
0.112295
0.112295
0.112295
0.112295
0.112295
0.112295
0.112295
0.112295
0.112295
0.112295
0.112295
0.112295
0.112295
0.112295
0.112295
0.112295
0.112295
0.112295
0.112295
0.112295
0.112295
0.112295
0.112295
0.112295
0.112295
0.112295
0.112295
0.112295
0.112295
0.112295
0.112295
0.112295
0.112295
0.112295
0.112295
0.112295
0.112295
0.112295
0.112295
0.112295
0.112295
0.112295
0.112295
0.112295
0.112295
0.112295
0.112295
0.112295
0.112295
0.112295
0.112295
0.112295
0.112295
0.112295
0.112295
0.112295
0.112294
0.112282
0.112135
0.109033
0.0630174
0.0119627
0.00489225
0.0047113
0.00458728
0.0044584
0.00433263
0.00421131
0.00409391
0.00398018
0.00386989
0.00376288
0.00365895
0.00355795
0.00345973
0.00336415
0.00327108
0.0031804
0.003092
0.00300578
0.00292165
0.0028395
0.00275926
0.00268084
0.00260417
0.00252918
0.00245581
0.00238399
0.00231366
0.00224478
0.00217729
0.00211114
0.0020463
0.00198271
0.00192034
0.00185915
0.00179909
0.00174014
0.00168225
0.0016254
0.00156957
0.00151473
0.00146081
0.00140774
0.00135543
0.00130384
0.00125302
0.00120325
0.00115492
0.00110841
0.00106371
0.00101992
0.000974796
0.000924393
0.000862926
0.000783278
0.000679247
0.000550078
0.000405173
0.000263808
0.000147072
6.73551e-05
2.38315e-05
5.93318e-06
9.05964e-07
7.03016e-08
2.19528e-09
2.16218e-11
3.0486e-13
2.54262e-13
2.54107e-13
2.53862e-13
2.5281e-13
2.49798e-13
2.4388e-13
2.34972e-13
2.24005e-13
2.12435e-13
2.0148e-13
1.91674e-13
1.82939e-13
1.74901e-13
1.67171e-13
1.59478e-13
1.517e-13
1.43834e-13
1.35949e-13
1.28126e-13
1.2043e-13
1.1289e-13
1.05505e-13
9.82494e-14
9.1091e-14
8.40005e-14
7.69591e-14
6.99549e-14
0.112295
0.112295
0.112295
0.112295
0.112295
0.112295
0.112295
0.112295
0.112295
0.112295
0.112295
0.112295
0.112295
0.112295
0.112295
0.112295
0.112295
0.112295
0.112295
0.112295
0.112295
0.112295
0.112295
0.112295
0.112295
0.112295
0.112295
0.112295
0.112295
0.112295
0.112295
0.112295
0.112295
0.112295
0.112295
0.112295
0.112295
0.112295
0.112295
0.112295
0.112295
0.112295
0.112295
0.112295
0.112295
0.112295
0.112295
0.112295
0.112295
0.112295
0.112295
0.112295
0.112295
0.112295
0.112295
0.112295
0.112295
0.112295
0.112295
0.112295
0.112295
0.112295
0.112295
0.112295
0.112295
0.112295
0.112293
0.112273
0.112003
0.106126
0.0484253
0.00853039
0.00484226
0.00470054
0.00457522
0.00444622
0.00432104
0.00420021
0.00408326
0.00396994
0.00386005
0.0037534
0.00364982
0.00354915
0.00345124
0.00335594
0.00326315
0.00317273
0.00308459
0.0029986
0.00291469
0.00283276
0.00275272
0.00267449
0.00259801
0.0025232
0.00244999
0.00237833
0.00230816
0.00223943
0.00217208
0.00210608
0.00204137
0.00197791
0.00191567
0.0018546
0.00179466
0.00173582
0.00167804
0.00162131
0.00156559
0.00151085
0.00145704
0.00140407
0.00135186
0.00130036
0.00124965
0.00119998
0.00115175
0.00110535
0.00106076
0.00101706
0.000971999
0.000921621
0.000860134
0.00078044
0.000676388
0.000547323
0.000402736
0.000261903
0.000145798
6.66568e-05
2.35377e-05
5.84812e-06
8.91348e-07
6.90774e-08
2.15652e-09
2.12595e-11
3.03926e-13
2.54123e-13
2.54008e-13
2.53794e-13
2.52777e-13
2.49789e-13
2.43879e-13
2.34974e-13
2.24008e-13
2.12437e-13
2.01481e-13
1.91675e-13
1.82939e-13
1.74901e-13
1.67172e-13
1.59479e-13
1.517e-13
1.43835e-13
1.35949e-13
1.28126e-13
1.2043e-13
1.1289e-13
1.05505e-13
9.82496e-14
9.10912e-14
8.40006e-14
7.69592e-14
6.9955e-14
0.112295
0.112295
0.112295
0.112295
0.112295
0.112295
0.112295
0.112295
0.112295
0.112295
0.112295
0.112295
0.112295
0.112295
0.112295
0.112295
0.112295
0.112295
0.112295
0.112295
0.112295
0.112295
0.112295
0.112295
0.112295
0.112295
0.112295
0.112295
0.112295
0.112295
0.112295
0.112295
0.112295
0.112295
0.112295
0.112295
0.112295
0.112295
0.112295
0.112295
0.112295
0.112295
0.112295
0.112295
0.112295
0.112295
0.112295
0.112295
0.112295
0.112295
0.112295
0.112295
0.112295
0.112295
0.112295
0.112295
0.112295
0.112295
0.112295
0.112295
0.112295
0.112295
0.112295
0.112295
0.112295
0.112294
0.112291
0.112255
0.111735
0.100557
0.0353363
0.00643341
0.00481912
0.00468932
0.00456223
0.0044334
0.00430883
0.00418851
0.00407202
0.00395913
0.00384965
0.00374338
0.00364016
0.00353982
0.00344222
0.00334724
0.00325473
0.00316458
0.00307669
0.00299095
0.00290727
0.00282556
0.00274573
0.00266771
0.00259142
0.00251679
0.00244376
0.00237227
0.00230226
0.00223369
0.00216649
0.00210063
0.00203606
0.00197274
0.00191063
0.00184969
0.00178987
0.00173115
0.00167349
0.00161687
0.00156126
0.00150663
0.00145292
0.00140006
0.00134796
0.00129656
0.00124596
0.00119639
0.00114827
0.00110199
0.0010575
0.00101389
0.000968895
0.000918532
0.000857008
0.000777242
0.000673149
0.000544185
0.000399947
0.000259713
0.000144328
6.58461e-05
2.31942e-05
5.7474e-06
8.73743e-07
6.75652e-08
2.10668e-09
2.07694e-11
3.02518e-13
2.53908e-13
2.53854e-13
2.53683e-13
2.52712e-13
2.49762e-13
2.4387e-13
2.34972e-13
2.24009e-13
2.1244e-13
2.01483e-13
1.91676e-13
1.8294e-13
1.74902e-13
1.67172e-13
1.59479e-13
1.517e-13
1.43835e-13
1.35949e-13
1.28126e-13
1.2043e-13
1.1289e-13
1.05505e-13
9.82497e-14
9.10913e-14
8.40008e-14
7.69593e-14
6.99551e-14
0.112295
0.112295
0.112295
0.112295
0.112295
0.112295
0.112295
0.112295
0.112295
0.112295
0.112295
0.112295
0.112295
0.112295
0.112295
0.112295
0.112295
0.112295
0.112295
0.112295
0.112295
0.112295
0.112295
0.112295
0.112295
0.112295
0.112295
0.112295
0.112295
0.112295
0.112295
0.112295
0.112295
0.112295
0.112295
0.112295
0.112295
0.112295
0.112295
0.112295
0.112295
0.112295
0.112295
0.112295
0.112295
0.112295
0.112295
0.112295
0.112295
0.112295
0.112295
0.112295
0.112295
0.112295
0.112295
0.112295
0.112295
0.112295
0.112295
0.112295
0.112295
0.112295
0.112295
0.112295
0.112295
0.112294
0.112287
0.11222
0.111167
0.0901803
0.0243183
0.00543156
0.00480356
0.00467737
0.00454845
0.00442
0.00429604
0.00417624
0.00406022
0.00394778
0.00383871
0.00373284
0.00362998
0.00353
0.00343273
0.00333805
0.00324584
0.00315597
0.00306835
0.00298286
0.00289942
0.00281794
0.00273833
0.00266051
0.00258442
0.00250999
0.00243714
0.00236583
0.00229599
0.00222757
0.00216053
0.00209482
0.00203039
0.00196721
0.00190524
0.00184442
0.00178473
0.00172614
0.0016686
0.00161209
0.0015566
0.00150208
0.00144849
0.00139573
0.00134373
0.00129245
0.00124195
0.00119249
0.00114449
0.00109832
0.00105394
0.00101043
0.000965485
0.000915126
0.000853544
0.00077368
0.000669522
0.000540655
0.000396797
0.00025723
0.000142656
6.49201e-05
2.27997e-05
5.6307e-06
8.53066e-07
6.57526e-08
2.04517e-09
2.01431e-11
3.00535e-13
2.53582e-13
2.53618e-13
2.53513e-13
2.52605e-13
2.49706e-13
2.43843e-13
2.34962e-13
2.24008e-13
2.12441e-13
2.01485e-13
1.91678e-13
1.82941e-13
1.74903e-13
1.67172e-13
1.59479e-13
1.51701e-13
1.43835e-13
1.35949e-13
1.28127e-13
1.2043e-13
1.12891e-13
1.05505e-13
9.82499e-14
9.10914e-14
8.40009e-14
7.69594e-14
6.99552e-14
0.112295
0.112295
0.112295
0.112295
0.112295
0.112295
0.112295
0.112295
0.112295
0.112295
0.112295
0.112295
0.112295
0.112295
0.112295
0.112295
0.112295
0.112295
0.112295
0.112295
0.112295
0.112295
0.112295
0.112295
0.112295
0.112295
0.112295
0.112295
0.112295
0.112295
0.112295
0.112295
0.112295
0.112295
0.112295
0.112295
0.112295
0.112295
0.112295
0.112295
0.112295
0.112295
0.112295
0.112295
0.112295
0.112295
0.112295
0.112295
0.112295
0.112295
0.112295
0.112295
0.112295
0.112295
0.112295
0.112295
0.112295
0.112295
0.112295
0.112295
0.112295
0.112295
0.112295
0.112295
0.112295
0.112293
0.11228
0.11215
0.109923
0.073704
0.0157246
0.00505125
0.00478974
0.00466429
0.00453398
0.00440608
0.00428274
0.00416345
0.00404792
0.00393594
0.0038273
0.00372182
0.00361935
0.00351972
0.00342279
0.00332843
0.00323652
0.00314694
0.00305959
0.00297436
0.00289117
0.00280992
0.00273054
0.00265294
0.00257705
0.00250281
0.00243015
0.00235902
0.00228935
0.0022211
0.00215422
0.00208866
0.00202439
0.00196135
0.00189951
0.00183883
0.00177927
0.0017208
0.00166338
0.001607
0.00155162
0.00149722
0.00144374
0.00139109
0.0013392
0.00128802
0.00123763
0.00118829
0.0011404
0.00109435
0.00105009
0.00100666
0.000961771
0.000911403
0.000849742
0.000769752
0.000665502
0.000536727
0.000393279
0.00025445
0.000140777
6.38773e-05
2.23538e-05
5.49793e-06
8.29295e-07
6.36363e-08
1.97174e-09
1.93764e-11
2.97965e-13
2.5313e-13
2.53254e-13
2.53239e-13
2.52436e-13
2.4961e-13
2.43789e-13
2.34932e-13
2.23997e-13
2.12441e-13
2.01488e-13
1.9168e-13
1.82943e-13
1.74904e-13
1.67173e-13
1.5948e-13
1.51701e-13
1.43835e-13
1.3595e-13
1.28127e-13
1.2043e-13
1.12891e-13
1.05505e-13
9.82501e-14
9.10916e-14
8.4001e-14
7.69596e-14
6.99553e-14
0.112295
0.112295
0.112295
0.112295
0.112295
0.112295
0.112295
0.112295
0.112295
0.112295
0.112295
0.112295
0.112295
0.112295
0.112295
0.112295
0.112295
0.112295
0.112295
0.112295
0.112295
0.112295
0.112295
0.112295
0.112295
0.112295
0.112295
0.112295
0.112295
0.112295
0.112295
0.112295
0.112295
0.112295
0.112295
0.112295
0.112295
0.112295
0.112295
0.112295
0.112295
0.112295
0.112295
0.112295
0.112295
0.112295
0.112295
0.112295
0.112295
0.112295
0.112295
0.112295
0.112295
0.112295
0.112295
0.112295
0.112295
0.112295
0.112295
0.112295
0.112295
0.112295
0.112295
0.112295
0.112294
0.112291
0.112267
0.112
0.107113
0.0544309
0.0098957
0.00493296
0.00477641
0.0046498
0.00451892
0.00439169
0.00426895
0.00415019
0.00403516
0.00392364
0.00381543
0.00371037
0.00360828
0.00350902
0.00341244
0.00331841
0.0032268
0.00313752
0.00305045
0.00296549
0.00288255
0.00280154
0.00272238
0.002645
0.00256933
0.00249529
0.00242282
0.00235187
0.00228238
0.0022143
0.00214758
0.00208218
0.00201806
0.00195516
0.00189347
0.00183292
0.00177349
0.00171515
0.00165786
0.0016016
0.00154634
0.00149205
0.00143868
0.00138615
0.00133437
0.0012833
0.00123301
0.00118378
0.00113602
0.00109009
0.00104594
0.00100261
0.000957759
0.000907366
0.000845602
0.000765454
0.000661086
0.000532394
0.000389388
0.000251367
0.000138691
6.27177e-05
2.18568e-05
5.34926e-06
8.02476e-07
6.12222e-08
1.88676e-09
1.84711e-11
2.94831e-13
2.52521e-13
2.52724e-13
2.52831e-13
2.52166e-13
2.49457e-13
2.43695e-13
2.34873e-13
2.23968e-13
2.12431e-13
2.01487e-13
1.91682e-13
1.82945e-13
1.74906e-13
1.67174e-13
1.5948e-13
1.51701e-13
1.43836e-13
1.3595e-13
1.28127e-13
1.20431e-13
1.12891e-13
1.05506e-13
9.82502e-14
9.10918e-14
8.40012e-14
7.69597e-14
6.99555e-14
0.112295
0.112295
0.112295
0.112295
0.112295
0.112295
0.112295
0.112295
0.112295
0.112295
0.112295
0.112295
0.112295
0.112295
0.112295
0.112295
0.112295
0.112295
0.112295
0.112295