/*--------------------------------*- C++ -*----------------------------------*\
  =========                 |
  \\      /  F ield         | OpenFOAM: The Open Source CFD Toolbox
   \\    /   O peration     | Website:  https://openfoam.org
    \\  /    A nd           | Version:  13
     \\/     M anipulation  |
\*---------------------------------------------------------------------------*/
FoamFile
{
    format      ascii;
    class       volScalarField;
    location    "0.0016";
    object      O2;
}
// * * * * * * * * * * * * * * * * * * * * * * * * * * * * * * * * * * * * * //

dimensions      [];

internalField   nonuniform List<scalar> 
33334
(
0.250541
0.250541
0.250541
0.250541
0.250541
0.250541
0.250541
0.250541
0.250541
0.250541
0.250541
0.250541
0.250541
0.250541
0.250541
0.250541
0.250541
0.250541
0.250541
0.250541
0.250541
0.250541
0.250541
0.250541
0.250541
0.250541
0.250541
0.250541
0.250541
0.250541
0.250541
0.250541
0.250541
0.250541
0.250541
0.250541
0.250541
0.250541
0.250541
0.250541
0.250541
0.250541
0.250541
0.250541
0.250541
0.250541
0.250541
0.250541
0.250541
0.250541
0.250541
0.250541
0.250541
0.250541
0.250541
0.250541
0.250541
0.250541
0.250541
0.250541
0.250541
0.250541
0.250541
0.250541
0.250541
0.250541
0.250541
0.250542
0.250552
0.250693
0.254294
0.325352
0.425329
0.441354
0.441731
0.441948
0.442175
0.442398
0.442612
0.442819
0.44302
0.443215
0.443404
0.443588
0.443766
0.443939
0.444108
0.444272
0.444432
0.444588
0.44474
0.444889
0.445034
0.445175
0.445314
0.445449
0.445581
0.445711
0.445837
0.445962
0.446083
0.446202
0.446319
0.446433
0.446546
0.446656
0.446764
0.44687
0.446974
0.447076
0.447176
0.447275
0.447372
0.447467
0.447562
0.447654
0.447746
0.447835
0.447922
0.448006
0.448087
0.448165
0.448247
0.448337
0.448447
0.448589
0.448774
0.449005
0.449265
0.44952
0.449732
0.449877
0.449956
0.449989
0.449998
0.45
0.45
0.45
0.45
0.45
0.45
0.45
0.45
0.45
0.45
0.45
0.45
0.45
0.45
0.45
0.45
0.45
0.45
0.45
0.45
0.45
0.45
0.45
0.45
0.45
0.45
0.45
0.45
0.45
0.45
0.45
0.250541
0.250541
0.250541
0.250541
0.250541
0.250541
0.250541
0.250541
0.250541
0.250541
0.250541
0.250541
0.250541
0.250541
0.250541
0.250541
0.250541
0.250541
0.250541
0.250541
0.250541
0.250541
0.250541
0.250541
0.250541
0.250541
0.250541
0.250541
0.250541
0.250541
0.250541
0.250541
0.250541
0.250541
0.250541
0.250541
0.250541
0.250541
0.250541
0.250541
0.250541
0.250541
0.250541
0.250541
0.250541
0.250541
0.250541
0.250541
0.250541
0.250541
0.250541
0.250541
0.250541
0.250541
0.250541
0.250541
0.250541
0.250541
0.250541
0.250541
0.250541
0.250541
0.250541
0.250541
0.250541
0.250541
0.250541
0.250542
0.250551
0.250686
0.254156
0.323973
0.424811
0.441347
0.441733
0.441951
0.442178
0.4424
0.442614
0.442821
0.443022
0.443216
0.443405
0.443588
0.443766
0.44394
0.444108
0.444272
0.444432
0.444588
0.44474
0.444889
0.445034
0.445175
0.445314
0.445449
0.445581
0.445711
0.445838
0.445962
0.446083
0.446202
0.446319
0.446433
0.446546
0.446656
0.446764
0.44687
0.446974
0.447076
0.447177
0.447275
0.447372
0.447467
0.447562
0.447654
0.447746
0.447835
0.447922
0.448006
0.448087
0.448165
0.448247
0.448337
0.448446
0.448588
0.448774
0.449005
0.449265
0.44952
0.449731
0.449877
0.449956
0.449989
0.449998
0.45
0.45
0.45
0.45
0.45
0.45
0.45
0.45
0.45
0.45
0.45
0.45
0.45
0.45
0.45
0.45
0.45
0.45
0.45
0.45
0.45
0.45
0.45
0.45
0.45
0.45
0.45
0.45
0.45
0.45
0.45
0.250541
0.250541
0.250541
0.250541
0.250541
0.250541
0.250541
0.250541
0.250541
0.250541
0.250541
0.250541
0.250541
0.250541
0.250541
0.250541
0.250541
0.250541
0.250541
0.250541
0.250541
0.250541
0.250541
0.250541
0.250541
0.250541
0.250541
0.250541
0.250541
0.250541
0.250541
0.250541
0.250541
0.250541
0.250541
0.250541
0.250541
0.250541
0.250541
0.250541
0.250541
0.250541
0.250541
0.250541
0.250541
0.250541
0.250541
0.250541
0.250541
0.250541
0.250541
0.250541
0.250541
0.250541
0.250541
0.250541
0.250541
0.250541
0.250541
0.250541
0.250541
0.250541
0.250541
0.250541
0.250541
0.250541
0.250541
0.250542
0.250552
0.250705
0.254645
0.328595
0.426305
0.441379
0.441738
0.441956
0.442182
0.442404
0.442618
0.442824
0.443025
0.443219
0.443407
0.44359
0.443769
0.443942
0.44411
0.444274
0.444434
0.44459
0.444742
0.44489
0.445035
0.445177
0.445315
0.44545
0.445583
0.445712
0.445839
0.445963
0.446084
0.446203
0.44632
0.446434
0.446547
0.446657
0.446765
0.446871
0.446975
0.447077
0.447177
0.447276
0.447373
0.447468
0.447562
0.447655
0.447746
0.447836
0.447923
0.448006
0.448087
0.448166
0.448247
0.448337
0.448447
0.448589
0.448774
0.449005
0.449265
0.44952
0.449731
0.449876
0.449956
0.449989
0.449998
0.45
0.45
0.45
0.45
0.45
0.45
0.45
0.45
0.45
0.45
0.45
0.45
0.45
0.45
0.45
0.45
0.45
0.45
0.45
0.45
0.45
0.45
0.45
0.45
0.45
0.45
0.45
0.45
0.45
0.45
0.45
0.250541
0.250541
0.250541
0.250541
0.250541
0.250541
0.250541
0.250541
0.250541
0.250541
0.250541
0.250541
0.250541
0.250541
0.250541
0.250541
0.250541
0.250541
0.250541
0.250541
0.250541
0.250541
0.250541
0.250541
0.250541
0.250541
0.250541
0.250541
0.250541
0.250541
0.250541
0.250541
0.250541
0.250541
0.250541
0.250541
0.250541
0.250541
0.250541
0.250541
0.250541
0.250541
0.250541
0.250541
0.250541
0.250541
0.250541
0.250541
0.250541
0.250541
0.250541
0.250541
0.250541
0.250541
0.250541
0.250541
0.250541
0.250541
0.250541
0.250541
0.250541
0.250541
0.250541
0.250541
0.250541
0.250541
0.250541
0.250542
0.250554
0.250734
0.255413
0.335908
0.428501
0.441424
0.441744
0.441962
0.442189
0.44241
0.442623
0.44283
0.44303
0.443224
0.443412
0.443595
0.443773
0.443946
0.444114
0.444278
0.444438
0.444594
0.444745
0.444894
0.445038
0.44518
0.445318
0.445453
0.445585
0.445714
0.445841
0.445965
0.446086
0.446205
0.446322
0.446436
0.446548
0.446658
0.446766
0.446872
0.446976
0.447078
0.447179
0.447277
0.447374
0.447469
0.447563
0.447656
0.447747
0.447837
0.447924
0.448007
0.448088
0.448166
0.448247
0.448338
0.448447
0.448589
0.448774
0.449005
0.449265
0.44952
0.449731
0.449876
0.449956
0.449989
0.449998
0.45
0.45
0.45
0.45
0.45
0.45
0.45
0.45
0.45
0.45
0.45
0.45
0.45
0.45
0.45
0.45
0.45
0.45
0.45
0.45
0.45
0.45
0.45
0.45
0.45
0.45
0.45
0.45
0.45
0.45
0.45
0.250541
0.250541
0.250541
0.250541
0.250541
0.250541
0.250541
0.250541
0.250541
0.250541
0.250541
0.250541
0.250541
0.250541
0.250541
0.250541
0.250541
0.250541
0.250541
0.250541
0.250541
0.250541
0.250541
0.250541
0.250541
0.250541
0.250541
0.250541
0.250541
0.250541
0.250541
0.250541
0.250541
0.250541
0.250541
0.250541
0.250541
0.250541
0.250541
0.250541
0.250541
0.250541
0.250541
0.250541
0.250541
0.250541
0.250541
0.250541
0.250541
0.250541
0.250541
0.250541
0.250541
0.250541
0.250541
0.250541
0.250541
0.250541
0.250541
0.250541
0.250541
0.250541
0.250541
0.250541
0.250541
0.250541
0.250541
0.250543
0.250557
0.250788
0.256791
0.345918
0.431187
0.441468
0.441752
0.44197
0.442197
0.442418
0.442631
0.442837
0.443037
0.443231
0.443419
0.443601
0.443779
0.443952
0.44412
0.444283
0.444443
0.444598
0.44475
0.444898
0.445043
0.445184
0.445322
0.445457
0.445589
0.445718
0.445844
0.445968
0.446089
0.446208
0.446325
0.446439
0.446551
0.446661
0.446769
0.446874
0.446978
0.44708
0.447181
0.447279
0.447376
0.447471
0.447565
0.447657
0.447749
0.447838
0.447925
0.448008
0.448089
0.448168
0.448248
0.448338
0.448448
0.44859
0.448775
0.449005
0.449265
0.44952
0.449731
0.449876
0.449956
0.449989
0.449998
0.45
0.45
0.45
0.45
0.45
0.45
0.45
0.45
0.45
0.45
0.45
0.45
0.45
0.45
0.45
0.45
0.45
0.45
0.45
0.45
0.45
0.45
0.45
0.45
0.45
0.45
0.45
0.45
0.45
0.45
0.45
0.250541
0.250541
0.250541
0.250541
0.250541
0.250541
0.250541
0.250541
0.250541
0.250541
0.250541
0.250541
0.250541
0.250541
0.250541
0.250541
0.250541
0.250541
0.250541
0.250541
0.250541
0.250541
0.250541
0.250541
0.250541
0.250541
0.250541
0.250541
0.250541
0.250541
0.250541
0.250541
0.250541
0.250541
0.250541
0.250541
0.250541
0.250541
0.250541
0.250541
0.250541
0.250541
0.250541
0.250541
0.250541
0.250541
0.250541
0.250541
0.250541
0.250541
0.250541
0.250541
0.250541
0.250541
0.250541
0.250541
0.250541
0.250541
0.250541
0.250541
0.250541
0.250541
0.250541
0.250541
0.250541
0.250541
0.250541
0.250543
0.250562
0.250869
0.258969
0.357634
0.433819
0.441504
0.441762
0.441981
0.442208
0.442428
0.442641
0.442846
0.443046
0.443239
0.443427
0.443609
0.443786
0.443959
0.444127
0.44429
0.444449
0.444604
0.444756
0.444904
0.445048
0.445189
0.445327
0.445461
0.445593
0.445722
0.445849
0.445972
0.446093
0.446212
0.446328
0.446442
0.446554
0.446664
0.446772
0.446877
0.446981
0.447083
0.447183
0.447281
0.447378
0.447473
0.447567
0.44766
0.447751
0.44784
0.447927
0.44801
0.44809
0.448169
0.44825
0.44834
0.448449
0.448591
0.448776
0.449006
0.449266
0.44952
0.449732
0.449877
0.449956
0.449989
0.449998
0.45
0.45
0.45
0.45
0.45
0.45
0.45
0.45
0.45
0.45
0.45
0.45
0.45
0.45
0.45
0.45
0.45
0.45
0.45
0.45
0.45
0.45
0.45
0.45
0.45
0.45
0.45
0.45
0.45
0.45
0.45
0.250541
0.250541
0.250541
0.250541
0.250541
0.250541
0.250541
0.250541
0.250541
0.250541
0.250541
0.250541
0.250541
0.250541
0.250541
0.250541
0.250541
0.250541
0.250541
0.250541
0.250541
0.250541
0.250541
0.250541
0.250541
0.250541
0.250541
0.250541
0.250541
0.250541
0.250541
0.250541
0.250541
0.250541
0.250541
0.250541
0.250541
0.250541
0.250541
0.250541
0.250541
0.250541
0.250541
0.250541
0.250541
0.250541
0.250541
0.250541
0.250541
0.250541
0.250541
0.250541
0.250541
0.250541
0.250541
0.250541
0.250541
0.250541
0.250541
0.250541
0.250541
0.250541
0.250541
0.250541
0.250541
0.250541
0.250541
0.250544
0.25057
0.251009
0.262439
0.370488
0.436282
0.441534
0.441773
0.441994
0.44222
0.44244
0.442652
0.442857
0.443056
0.443249
0.443436
0.443618
0.443795
0.443967
0.444134
0.444298
0.444456
0.444611
0.444762
0.44491
0.445054
0.445195
0.445332
0.445467
0.445599
0.445727
0.445853
0.445977
0.446098
0.446216
0.446333
0.446446
0.446558
0.446668
0.446775
0.446881
0.446985
0.447086
0.447186
0.447285
0.447381
0.447476
0.44757
0.447662
0.447753
0.447842
0.447929
0.448012
0.448093
0.448171
0.448252
0.448342
0.448451
0.448592
0.448777
0.449008
0.449267
0.449521
0.449732
0.449877
0.449956
0.449989
0.449998
0.45
0.45
0.45
0.45
0.45
0.45
0.45
0.45
0.45
0.45
0.45
0.45
0.45
0.45
0.45
0.45
0.45
0.45
0.45
0.45
0.45
0.45
0.45
0.45
0.45
0.45
0.45
0.45
0.45
0.45
0.45
0.250541
0.250541
0.250541
0.250541
0.250541
0.250541
0.250541
0.250541
0.250541
0.250541
0.250541
0.250541
0.250541
0.250541
0.250541
0.250541
0.250541
0.250541
0.250541
0.250541
0.250541
0.250541
0.250541
0.250541
0.250541
0.250541
0.250541
0.250541
0.250541
0.250541
0.250541
0.250541
0.250541
0.250541
0.250541
0.250541
0.250541
0.250541
0.250541
0.250541
0.250541
0.250541
0.250541
0.250541
0.250541
0.250541
0.250541
0.250541
0.250541
0.250541
0.250541
0.250541
0.250541
0.250541
0.250541
0.250541
0.250541
0.250541
0.250541
0.250541
0.250541
0.250541
0.250541
0.250541
0.250541
0.250541
0.250542
0.250545
0.250582
0.251235
0.268076
0.383704
0.438304
0.441557
0.441786
0.442008
0.442234
0.442453
0.442665
0.442869
0.443068
0.44326
0.443447
0.443628
0.443805
0.443976
0.444143
0.444306
0.444465
0.444619
0.44477
0.444917
0.445061
0.445202
0.445339
0.445473
0.445605
0.445733
0.445859
0.445982
0.446103
0.446222
0.446338
0.446451
0.446563
0.446672
0.44678
0.446885
0.446989
0.44709
0.44719
0.447288
0.447385
0.44748
0.447573
0.447665
0.447756
0.447845
0.447932
0.448015
0.448095
0.448173
0.448254
0.448344
0.448453
0.448595
0.44878
0.44901
0.449269
0.449522
0.449733
0.449877
0.449956
0.449989
0.449998
0.45
0.45
0.45
0.45
0.45
0.45
0.45
0.45
0.45
0.45
0.45
0.45
0.45
0.45
0.45
0.45
0.45
0.45
0.45
0.45
0.45
0.45
0.45
0.45
0.45
0.45
0.45
0.45
0.45
0.45
0.45
0.250541
0.250541
0.250541
0.250541
0.250541
0.250541
0.250541
0.250541
0.250541
0.250541
0.250541
0.250541
0.250541
0.250541
0.250541
0.250541
0.250541
0.250541
0.250541
0.250541
0.250541
0.250541
0.250541
0.250541
0.250541
0.250541
0.250541
0.250541
0.250541
0.250541
0.250541
0.250541
0.250541
0.250541
0.250541
0.250541
0.250541
0.250541
0.250541
0.250541
0.250541
0.250541
0.250541
0.250541
0.250541
0.250541
0.250541
0.250541
0.250541
0.250541
0.250541
0.250541
0.250541
0.250541
0.250541
0.250541
0.250541
0.250541
0.250541
0.250541
0.250541
0.250541
0.250541
0.250541
0.250541
0.250541
0.250542
0.250547
0.250603
0.251639
0.277216
0.396696
0.439748
0.441576
0.4418
0.442024
0.44225
0.442468
0.442679
0.442883
0.443081
0.443272
0.443459
0.44364
0.443816
0.443987
0.444154
0.444316
0.444474
0.444628
0.444779
0.444926
0.445069
0.44521
0.445347
0.445481
0.445612
0.44574
0.445866
0.445989
0.446109
0.446228
0.446343
0.446457
0.446568
0.446678
0.446785
0.44689
0.446994
0.447095
0.447195
0.447293
0.447389
0.447484
0.447577
0.447669
0.44776
0.447849
0.447935
0.448018
0.448098
0.448176
0.448257
0.448347
0.448456
0.448597
0.448782
0.449012
0.449271
0.449524
0.449734
0.449878
0.449957
0.449989
0.449998
0.45
0.45
0.45
0.45
0.45
0.45
0.45
0.45
0.45
0.45
0.45
0.45
0.45
0.45
0.45
0.45
0.45
0.45
0.45
0.45
0.45
0.45
0.45
0.45
0.45
0.45
0.45
0.45
0.45
0.45
0.45
0.250541
0.250541
0.250541
0.250541
0.250541
0.250541
0.250541
0.250541
0.250541
0.250541
0.250541
0.250541
0.250541
0.250541
0.250541
0.250541
0.250541
0.250541
0.250541
0.250541
0.250541
0.250541
0.250541
0.250541
0.250541
0.250541
0.250541
0.250541
0.250541
0.250541
0.250541
0.250541
0.250541
0.250541
0.250541
0.250541
0.250541
0.250541
0.250541
0.250541
0.250541
0.250541
0.250541
0.250541
0.250541
0.250541
0.250541
0.250541
0.250541
0.250541
0.250541
0.250541
0.250541
0.250541
0.250541
0.250541
0.250541
0.250541
0.250541
0.250541
0.250541
0.250541
0.250541
0.250541
0.250541
0.250541
0.250542
0.25055
0.25064
0.252367
0.291604
0.409056
0.440632
0.441595
0.441815
0.442042
0.442267
0.442484
0.442694
0.442897
0.443095
0.443286
0.443472
0.443652
0.443828
0.443998
0.444165
0.444327
0.444484
0.444638
0.444788
0.444935
0.445078
0.445218
0.445355
0.445489
0.44562
0.445748
0.445873
0.445996
0.446116
0.446234
0.44635
0.446463
0.446575
0.446684
0.446791
0.446896
0.446999
0.4471
0.4472
0.447298
0.447394
0.447488
0.447582
0.447674
0.447764
0.447853
0.447939
0.448022
0.448102
0.44818
0.44826
0.44835
0.448459
0.448601
0.448785
0.449015
0.449273
0.449526
0.449735
0.449878
0.449957
0.449989
0.449998
0.45
0.45
0.45
0.45
0.45
0.45
0.45
0.45
0.45
0.45
0.45
0.45
0.45
0.45
0.45
0.45
0.45
0.45
0.45
0.45
0.45
0.45
0.45
0.45
0.45
0.45
0.45
0.45
0.45
0.45
0.45
0.250541
0.250541
0.250541
0.250541
0.250541
0.250541
0.250541
0.250541
0.250541
0.250541
0.250541
0.250541
0.250541
0.250541
0.250541
0.250541
0.250541
0.250541
0.250541
0.250541
0.250541
0.250541
0.250541
0.250541
0.250541
0.250541
0.250541
0.250541
0.250541
0.250541
0.250541
0.250541
0.250541
0.250541
0.250541
0.250541
0.250541
0.250541
0.250541
0.250541
0.250541
0.250541
0.250541
0.250541
0.250541
0.250541
0.250541
0.250541
0.250541
0.250541
0.250541
0.250541
0.250541
0.250541
0.250541
0.250541
0.250541
0.250541
0.250541
0.250541
0.250541
0.250541
0.250541
0.250541
0.250541
0.250541
0.250543
0.250555
0.250705
0.253721
0.312588
0.419939
0.441099
0.441613
0.441833
0.442061
0.442285
0.442501
0.442711
0.442913
0.44311
0.443301
0.443486
0.443666
0.443841
0.444011
0.444177
0.444338
0.444496
0.444649
0.444799
0.444945
0.445088
0.445228
0.445364
0.445498
0.445628
0.445756
0.445881
0.446004
0.446124
0.446242
0.446357
0.44647
0.446581
0.44669
0.446797
0.446902
0.447005
0.447106
0.447206
0.447303
0.447399
0.447494
0.447587
0.447679
0.447769
0.447858
0.447944
0.448026
0.448106
0.448184
0.448264
0.448354
0.448463
0.448604
0.448789
0.449019
0.449277
0.449529
0.449737
0.449879
0.449957
0.449989
0.449998
0.45
0.45
0.45
0.45
0.45
0.45
0.45
0.45
0.45
0.45
0.45
0.45
0.45
0.45
0.45
0.45
0.45
0.45
0.45
0.45
0.45
0.45
0.45
0.45
0.45
0.45
0.45
0.45
0.45
0.45
0.45
0.250541
0.250541
0.250541
0.250541
0.250541
0.250541
0.250541
0.250541
0.250541
0.250541
0.250541
0.250541
0.250541
0.250541
0.250541
0.250541
0.250541
0.250541
0.250541
0.250541
0.250541
0.250541
0.250541
0.250541
0.250541
0.250541
0.250541
0.250541
0.250541
0.250541
0.250541
0.250541
0.250541
0.250541
0.250541
0.250541
0.250541
0.250541
0.250541
0.250541
0.250541
0.250541
0.250541
0.250541
0.250541
0.250541
0.250541
0.250541
0.250541
0.250541
0.250541
0.250541
0.250541
0.250541
0.250541
0.250541
0.250541
0.250541
0.250541
0.250541
0.250541
0.250541
0.250541
0.250541
0.250541
0.250542
0.250544
0.250564
0.250825
0.256336
0.338068
0.428752
0.44131
0.441632
0.441852
0.442081
0.442304
0.44252
0.442728
0.44293
0.443126
0.443316
0.443501
0.44368
0.443855
0.444025
0.44419
0.444351
0.444508
0.444661
0.444811
0.444956
0.445099
0.445238
0.445374
0.445508
0.445638
0.445766
0.44589
0.446013
0.446133
0.44625
0.446365
0.446478
0.446589
0.446698
0.446804
0.446909
0.447012
0.447113
0.447212
0.44731
0.447405
0.4475
0.447592
0.447684
0.447774
0.447863
0.447949
0.448031
0.448111
0.448188
0.448269
0.448358
0.448467
0.448609
0.448794
0.449023
0.44928
0.449531
0.449739
0.44988
0.449958
0.449989
0.449998
0.45
0.45
0.45
0.45
0.45
0.45
0.45
0.45
0.45
0.45
0.45
0.45
0.45
0.45
0.45
0.45
0.45
0.45
0.45
0.45
0.45
0.45
0.45
0.45
0.45
0.45
0.45
0.45
0.45
0.45
0.45
0.250541
0.250541
0.250541
0.250541
0.250541
0.250541
0.250541
0.250541
0.250541
0.250541
0.250541
0.250541
0.250541
0.250541
0.250541
0.250541
0.250541
0.250541
0.250541
0.250541
0.250541
0.250541
0.250541
0.250541
0.250541
0.250541
0.250541
0.250541
0.250541
0.250541
0.250541
0.250541
0.250541
0.250541
0.250541
0.250541
0.250541
0.250541
0.250541
0.250541
0.250541
0.250541
0.250541
0.250541
0.250541
0.250541
0.250541
0.250541
0.250541
0.250541
0.250541
0.250541
0.250541
0.250541
0.250541
0.250541
0.250541
0.250541
0.250541
0.250541
0.250541
0.250541
0.250541
0.250541
0.250541
0.250542
0.250546
0.250581
0.25106
0.261499
0.363987
0.434848
0.441399
0.441651
0.441873
0.442103
0.442325
0.44254
0.442747
0.442949
0.443144
0.443333
0.443517
0.443696
0.44387
0.444039
0.444204
0.444365
0.444521
0.444674
0.444823
0.444968
0.445111
0.44525
0.445385
0.445518
0.445648
0.445776
0.4459
0.446022
0.446142
0.446259
0.446374
0.446487
0.446597
0.446706
0.446812
0.446917
0.447019
0.44712
0.447219
0.447316
0.447412
0.447506
0.447599
0.44769
0.44778
0.447869
0.447954
0.448037
0.448116
0.448193
0.448274
0.448363
0.448472
0.448614
0.448799
0.449028
0.449285
0.449535
0.449741
0.449882
0.449958
0.44999
0.449998
0.45
0.45
0.45
0.45
0.45
0.45
0.45
0.45
0.45
0.45
0.45
0.45
0.45
0.45
0.45
0.45
0.45
0.45
0.45
0.45
0.45
0.45
0.45
0.45
0.45
0.45
0.45
0.45
0.45
0.45
0.45
0.250541
0.250541
0.250541
0.250541
0.250541
0.250541
0.250541
0.250541
0.250541
0.250541
0.250541
0.250541
0.250541
0.250541
0.250541
0.250541
0.250541
0.250541
0.250541
0.250541
0.250541
0.250541
0.250541
0.250541
0.250541
0.250541
0.250541
0.250541
0.250541
0.250541
0.250541
0.250541
0.250541
0.250541
0.250541
0.250541
0.250541
0.250541
0.250541
0.250541
0.250541
0.250541
0.250541
0.250541
0.250541
0.250541
0.250541
0.250541
0.250541
0.250541
0.250541
0.250541
0.250541
0.250541
0.250541
0.250541
0.250541
0.250541
0.250541
0.250541
0.250541
0.250541
0.250541
0.250541
0.250541
0.250542
0.250549
0.250613
0.251536
0.271391
0.387236
0.438573
0.44144
0.441671
0.441897
0.442125
0.442347
0.44256
0.442767
0.442968
0.443162
0.443351
0.443534
0.443713
0.443886
0.444055
0.444219
0.444379
0.444535
0.444687
0.444836
0.444981
0.445123
0.445262
0.445397
0.44553
0.445659
0.445786
0.445911
0.446033
0.446152
0.446269
0.446384
0.446496
0.446606
0.446715
0.446821
0.446925
0.447028
0.447128
0.447227
0.447324
0.447419
0.447513
0.447606
0.447697
0.447787
0.447875
0.44796
0.448043
0.448122
0.448199
0.448279
0.448369
0.448478
0.448619
0.448804
0.449033
0.44929
0.449539
0.449744
0.449883
0.449959
0.44999
0.449998
0.45
0.45
0.45
0.45
0.45
0.45
0.45
0.45
0.45
0.45
0.45
0.45
0.45
0.45
0.45
0.45
0.45
0.45
0.45
0.45
0.45
0.45
0.45
0.45
0.45
0.45
0.45
0.45
0.45
0.45
0.45
0.250541
0.250541
0.250541
0.250541
0.250541
0.250541
0.250541
0.250541
0.250541
0.250541
0.250541
0.250541
0.250541
0.250541
0.250541
0.250541
0.250541
0.250541
0.250541
0.250541
0.250541
0.250541
0.250541
0.250541
0.250541
0.250541
0.250541
0.250541
0.250541
0.250541
0.250541
0.250541
0.250541
0.250541
0.250541
0.250541
0.250541
0.250541
0.250541
0.250541
0.250541
0.250541
0.250541
0.250541
0.250541
0.250541
0.250541
0.250541
0.250541
0.250541
0.250541
0.250541
0.250541
0.250541
0.250541
0.250541
0.250541
0.250541
0.250541
0.250541
0.250541
0.250541
0.250541
0.250541
0.250542
0.250543
0.250556
0.250675
0.252546
0.289822
0.406806
0.440352
0.441468
0.441692
0.441921
0.442149
0.442369
0.442582
0.442788
0.442988
0.443182
0.44337
0.443552
0.44373
0.443903
0.444071
0.444235
0.444394
0.44455
0.444702
0.44485
0.444995
0.445136
0.445274
0.44541
0.445542
0.445671
0.445798
0.445922
0.446043
0.446162
0.446279
0.446394
0.446506
0.446616
0.446724
0.44683
0.446934
0.447036
0.447137
0.447235
0.447332
0.447427
0.447521
0.447613
0.447704
0.447794
0.447882
0.447967
0.448049
0.448128
0.448205
0.448285
0.448375
0.448484
0.448626
0.448811
0.44904
0.449295
0.449543
0.449747
0.449885
0.44996
0.44999
0.449998
0.45
0.45
0.45
0.45
0.45
0.45
0.45
0.45
0.45
0.45
0.45
0.45
0.45
0.45
0.45
0.45
0.45
0.45
0.45
0.45
0.45
0.45
0.45
0.45
0.45
0.45
0.45
0.45
0.45
0.45
0.45
0.250541
0.250541
0.250541
0.250541
0.250541
0.250541
0.250541
0.250541
0.250541
0.250541
0.250541
0.250541
0.250541
0.250541
0.250541
0.250541
0.250541
0.250541
0.250541
0.250541
0.250541
0.250541
0.250541
0.250541
0.250541
0.250541
0.250541
0.250541
0.250541
0.250541
0.250541
0.250541
0.250541
0.250541
0.250541
0.250541
0.250541
0.250541
0.250541
0.250541
0.250541
0.250541
0.250541
0.250541
0.250541
0.250541
0.250541
0.250541
0.250541
0.250541
0.250541
0.250541
0.250541
0.250541
0.250541
0.250541
0.250541
0.250541
0.250541
0.250541
0.250541
0.250541
0.250541
0.250541
0.250542
0.250545
0.250568
0.2508
0.254755
0.319087
0.42207
0.441028
0.441492
0.441715
0.441947
0.442174
0.442393
0.442605
0.44281
0.443009
0.443202
0.443389
0.443571
0.443748
0.44392
0.444088
0.444251
0.44441
0.444566
0.444717
0.444865
0.445009
0.44515
0.445288
0.445423
0.445555
0.445684
0.44581
0.445934
0.446055
0.446174
0.44629
0.446404
0.446516
0.446626
0.446734
0.44684
0.446944
0.447045
0.447146
0.447244
0.447341
0.447436
0.447529
0.447621
0.447712
0.447802
0.447889
0.447974
0.448056
0.448135
0.448212
0.448292
0.448381
0.448491
0.448633
0.448818
0.449047
0.449301
0.449548
0.44975
0.449887
0.44996
0.44999
0.449999
0.45
0.45
0.45
0.45
0.45
0.45
0.45
0.45
0.45
0.45
0.45
0.45
0.45
0.45
0.45
0.45
0.45
0.45
0.45
0.45
0.45
0.45
0.45
0.45
0.45
0.45
0.45
0.45
0.45
0.45
0.45
0.250541
0.250541
0.250541
0.250541
0.250541
0.250541
0.250541
0.250541
0.250541
0.250541
0.250541
0.250541
0.250541
0.250541
0.250541
0.250541
0.250541
0.250541
0.250541
0.250541
0.250541
0.250541
0.250541
0.250541
0.250541
0.250541
0.250541
0.250541
0.250541
0.250541
0.250541
0.250541
0.250541
0.250541
0.250541
0.250541
0.250541
0.250541
0.250541
0.250541
0.250541
0.250541
0.250541
0.250541
0.250541
0.250541
0.250541
0.250541
0.250541
0.250541
0.250541
0.250541
0.250541
0.250541
0.250541
0.250541
0.250541
0.250541
0.250541
0.250541
0.250541
0.250541
0.250541
0.250541
0.250543
0.250548
0.250591
0.251065
0.259745
0.35332
0.432423
0.441238
0.441516
0.441741
0.441973
0.442199
0.442417
0.442628
0.442833
0.443031
0.443223
0.44341
0.443591
0.443767
0.443939
0.444106
0.444269
0.444427
0.444582
0.444733
0.44488
0.445024
0.445164
0.445302
0.445436
0.445568
0.445697
0.445823
0.445946
0.446067
0.446185
0.446302
0.446416
0.446527
0.446637
0.446744
0.44685
0.446954
0.447055
0.447155
0.447253
0.44735
0.447445
0.447538
0.44763
0.447721
0.44781
0.447897
0.447982
0.448064
0.448142
0.448219
0.448299
0.448388
0.448498
0.44864
0.448826
0.449054
0.449308
0.449554
0.449754
0.449889
0.449961
0.44999
0.449999
0.45
0.45
0.45
0.45
0.45
0.45
0.45
0.45
0.45
0.45
0.45
0.45
0.45
0.45
0.45
0.45
0.45
0.45
0.45
0.45
0.45
0.45
0.45
0.45
0.45
0.45
0.45
0.45
0.45
0.45
0.45
0.250541
0.250541
0.250541
0.250541
0.250541
0.250541
0.250541
0.250541
0.250541
0.250541
0.250541
0.250541
0.250541
0.250541
0.250541
0.250541
0.250541
0.250541
0.250541
0.250541
0.250541
0.250541
0.250541
0.250541
0.250541
0.250541
0.250541
0.250541
0.250541
0.250541
0.250541
0.250541
0.250541
0.250541
0.250541
0.250541
0.250541
0.250541
0.250541
0.250541
0.250541
0.250541
0.250541
0.250541
0.250541
0.250541
0.250541
0.250541
0.250541
0.250541
0.250541
0.250541
0.250541
0.250541
0.250541
0.250541
0.250541
0.250541
0.250541
0.250541
0.250541
0.250541
0.250541
0.250542
0.250544
0.250554
0.25064
0.251664
0.270739
0.384095
0.437984
0.441304
0.44154
0.441769
0.442001
0.442226
0.442443
0.442653
0.442856
0.443053
0.443245
0.443431
0.443611
0.443787
0.443958
0.444124
0.444286
0.444445
0.444599
0.444749
0.444896
0.445039
0.44518
0.445317
0.445451
0.445582
0.44571
0.445836
0.445959
0.44608
0.446198
0.446314
0.446427
0.446539
0.446648
0.446755
0.446861
0.446964
0.447066
0.447165
0.447263
0.44736
0.447454
0.447547
0.447639
0.44773
0.447819
0.447906
0.447991
0.448072
0.44815
0.448227
0.448306
0.448396
0.448506
0.448649
0.448834
0.449063
0.449316
0.44956
0.449758
0.449891
0.449962
0.449991
0.449999
0.45
0.45
0.45
0.45
0.45
0.45
0.45
0.45
0.45
0.45
0.45
0.45
0.45
0.45
0.45
0.45
0.45
0.45
0.45
0.45
0.45
0.45
0.45
0.45
0.45
0.45
0.45
0.45
0.45
0.45
0.45
0.250541
0.250541
0.250541
0.250541
0.250541
0.250541
0.250541
0.250541
0.250541
0.250541
0.250541
0.250541
0.250541
0.250541
0.250541
0.250541
0.250541
0.250541
0.250541
0.250541
0.250541
0.250541
0.250541
0.250541
0.250541
0.250541
0.250541
0.250541
0.250541
0.250541
0.250541
0.250541
0.250541
0.250541
0.250541
0.250541
0.250541
0.250541
0.250541
0.250541
0.250541
0.250541
0.250541
0.250541
0.250541
0.250541
0.250541
0.250541
0.250541
0.250541
0.250541
0.250541
0.250541
0.250541
0.250541
0.250541
0.250541
0.250541
0.250541
0.250541
0.250541
0.250541
0.250541
0.250542
0.250546
0.250567
0.25074
0.253079
0.293239
0.408311
0.440288
0.441337
0.441565
0.441798
0.442029
0.442253
0.442469
0.442678
0.44288
0.443077
0.443267
0.443452
0.443632
0.443807
0.443978
0.444143
0.444305
0.444462
0.444616
0.444766
0.444912
0.445055
0.445195
0.445332
0.445465
0.445596
0.445724
0.44585
0.445972
0.446093
0.446211
0.446326
0.44644
0.446551
0.44666
0.446767
0.446872
0.446975
0.447076
0.447176
0.447274
0.44737
0.447464
0.447557
0.447649
0.447739
0.447828
0.447915
0.447999
0.44808
0.448158
0.448235
0.448315
0.448404
0.448515
0.448658
0.448844
0.449072
0.449324
0.449566
0.449762
0.449893
0.449963
0.449991
0.449999
0.45
0.45
0.45
0.45
0.45
0.45
0.45
0.45
0.45
0.45
0.45
0.45
0.45
0.45
0.45
0.45
0.45
0.45
0.45
0.45
0.45
0.45
0.45
0.45
0.45
0.45
0.45
0.45
0.45
0.45
0.45
0.250541
0.250541
0.250541
0.250541
0.250541
0.250541
0.250541
0.250541
0.250541
0.250541
0.250541
0.250541
0.250541
0.250541
0.250541
0.250541
0.250541
0.250541
0.250541
0.250541
0.250541
0.250541
0.250541
0.250541
0.250541
0.250541
0.250541
0.250541
0.250541
0.250541
0.250541
0.250541
0.250541
0.250541
0.250541
0.250541
0.250541
0.250541
0.250541
0.250541
0.250541
0.250541
0.250541
0.250541
0.250541
0.250541
0.250541
0.250541
0.250541
0.250541
0.250541
0.250541
0.250541
0.250541
0.250541
0.250541
0.250541
0.250541
0.250541
0.250541
0.250541
0.250541
0.250542
0.250543
0.25055
0.250591
0.250964
0.256515
0.329951
0.425616
0.440975
0.441365
0.441592
0.441828
0.442058
0.44228
0.442495
0.442703
0.442905
0.443101
0.44329
0.443475
0.443654
0.443828
0.443998
0.444163
0.444324
0.444481
0.444634
0.444784
0.444929
0.445072
0.445211
0.445348
0.445481
0.445611
0.445739
0.445864
0.445986
0.446106
0.446224
0.446339
0.446452
0.446563
0.446672
0.446779
0.446884
0.446987
0.447088
0.447187
0.447285
0.44738
0.447475
0.447567
0.447659
0.447749
0.447838
0.447924
0.448009
0.448089
0.448167
0.448244
0.448323
0.448413
0.448524
0.448667
0.448854
0.449082
0.449333
0.449573
0.449767
0.449896
0.449964
0.449991
0.449999
0.45
0.45
0.45
0.45
0.45
0.45
0.45
0.45
0.45
0.45
0.45
0.45
0.45
0.45
0.45
0.45
0.45
0.45
0.45
0.45
0.45
0.45
0.45
0.45
0.45
0.45
0.45
0.45
0.45
0.45
0.45
0.250541
0.250541
0.250541
0.250541
0.250541
0.250541
0.250541
0.250541
0.250541
0.250541
0.250541
0.250541
0.250541
0.250541
0.250541
0.250541
0.250541
0.250541
0.250541
0.250541
0.250541
0.250541
0.250541
0.250541
0.250541
0.250541
0.250541
0.250541
0.250541
0.250541
0.250541
0.250541
0.250541
0.250541
0.250541
0.250541
0.250541
0.250541
0.250541
0.250541
0.250541
0.250541
0.250541
0.250541
0.250541
0.250541
0.250541
0.250541
0.250541
0.250541
0.250541
0.250541
0.250541
0.250541
0.250541
0.250541
0.250541
0.250541
0.250541
0.250541
0.250541
0.250541
0.250542
0.250545
0.250558
0.250642
0.251497
0.265172
0.369323
0.435449
0.441137
0.441391
0.441622
0.441859
0.442088
0.442309
0.442523
0.44273
0.44293
0.443125
0.443314
0.443497
0.443676
0.44385
0.444019
0.444183
0.444344
0.4445
0.444653
0.444801
0.444947
0.445089
0.445228
0.445364
0.445497
0.445627
0.445754
0.445879
0.446001
0.44612
0.446238
0.446353
0.446466
0.446576
0.446685
0.446791
0.446896
0.446999
0.4471
0.447199
0.447296
0.447392
0.447486
0.447578
0.447669
0.447759
0.447848
0.447934
0.448018
0.448099
0.448177
0.448253
0.448332
0.448422
0.448533
0.448677
0.448864
0.449092
0.449343
0.449581
0.449772
0.449899
0.449966
0.449992
0.449999
0.45
0.45
0.45
0.45
0.45
0.45
0.45
0.45
0.45
0.45
0.45
0.45
0.45
0.45
0.45
0.45
0.45
0.45
0.45
0.45
0.45
0.45
0.45
0.45
0.45
0.45
0.45
0.45
0.45
0.45
0.45
0.250541
0.250541
0.250541
0.250541
0.250541
0.250541
0.250541
0.250541
0.250541
0.250541
0.250541
0.250541
0.250541
0.250541
0.250541
0.250541
0.250541
0.250541
0.250541
0.250541
0.250541
0.250541
0.250541
0.250541
0.250541
0.250541
0.250541
0.250541
0.250541
0.250541
0.250541
0.250541
0.250541
0.250541
0.250541
0.250541
0.250541
0.250541
0.250541
0.250541
0.250541
0.250541
0.250541
0.250541
0.250541
0.250541
0.250541
0.250541
0.250541
0.250541
0.250541
0.250541
0.250541
0.250541
0.250541
0.250541
0.250541
0.250541
0.250541
0.250541
0.250541
0.250542
0.250543
0.250548
0.250574
0.250757
0.252809
0.28531
0.400916
0.439604
0.441184
0.441418
0.441654
0.44189
0.442118
0.442337
0.44255
0.442756
0.442956
0.44315
0.443338