/*--------------------------------*- C++ -*----------------------------------*\
  =========                 |
  \\      /  F ield         | OpenFOAM: The Open Source CFD Toolbox
   \\    /   O peration     | Website:  https://openfoam.org
    \\  /    A nd           | Version:  13
     \\/     M anipulation  |
\*---------------------------------------------------------------------------*/
FoamFile
{
    format      ascii;
    class       volScalarField;
    location    "0.0016";
    object      p;
}
// * * * * * * * * * * * * * * * * * * * * * * * * * * * * * * * * * * * * * //

dimensions      [1 -1 -2 0 0 0 0];

internalField   nonuniform List<scalar> 
33334
(
438702
439051
439458
440212
441210
442513
443874
445945
447604
450160
452872
455880
459017
462229
465557
468961
472325
475535
478508
481187
483509
485429
486893
487868
488386
488510
488312
487825
487163
486466
485768
485065
484357
483669
483051
482630
482511
482734
483282
484100
485207
486701
488738
491308
494493
498226
502494
507360
513021
519632
527328
536230
546434
558071
571341
586405
603473
622637
644014
667661
693808
722631
754287
788984
827127
869718
917680
973296
1.04013e+06
1.12686e+06
1.22942e+06
1.02259e+06
521552
262802
233879
233150
232799
232395
231959
231507
231017
230448
229720
228893
228479
228164
227854
227547
227254
226974
226706
226449
226201
225961
225731
225508
225292
225083
224881
224683
224492
224305
224123
223945
223771
223601
223435
223272
223113
222958
222805
222656
222511
222368
222229
222093
221962
221834
221710
221593
221482
221372
221260
221196
221101
221024
220948
220889
220869
220915
221040
221194
221197
220923
220290
219459
219517
218771
218459
218162
217895
217615
217345
217076
216808
216549
216296
216047
215802
215561
215325
215094
214868
214645
214424
214208
213996
213793
213600
213415
213231
213044
212853
212663
212473
212286
439051
439447
439866
440677
441743
443062
444952
446883
448586
450727
453319
456114
459100
462288
465585
468874
472114
475252
478193
480856
483176
485104
486595
487624
488207
488420
488311
487904
487324
486692
486036
485366
484680
484003
483384
482931
482742
482869
483250
483917
484892
486345
488335
490942
494149
497809
502035
506936
512637
519239
526952
535749
545870
557410
570619
585625
602646
621824
643209
666950
693299
722410
754656
790096
828800
871835
920248
976764
1.04493e+06
1.13129e+06
1.22971e+06
1.03047e+06
529236
264045
233003
232111
231601
231006
230376
229750
229158
228677
228484
228515
228263
227928
227618
227332
227057
226791
226533
226285
226045
225812
225588
225370
225158
224953
224753
224558
224369
224183
224002
223825
223652
223483
223317
223155
222996
222840
222689
222540
222395
222254
222117
221983
221854
221729
221608
221495
221387
221283
221175
221111
221029
220958
220889
220836
220823
220879
221013
221174
221185
220914
220283
219454
219514
218772
218459
218162
217895
217615
217345
217076
216808
216549
216296
216047
215802
215561
215325
215094
214868
214645
214424
214208
213996
213793
213600
213415
213231
213044
212853
212663
212474
212286
439458
439866
440235
441012
442041
443399
445010
446862
449415
451903
454537
457362
460413
463662
466992
470322
473607
476770
479708
482335
484590
486426
487795
488668
489102
489162
488883
488339
487662
486932
486171
485396
484639
483959
483470
483242
483287
483529
483888
484466
485323
486673
488608
491183
494350
498008
502213
507035
512630
519169
526818
535642
545794
557374
570593
585605
602622
621761
643099
666771
693004
722015
753997
789293
828281
872024
921821
979497
1.04814e+06
1.13307e+06
1.22734e+06
1.00378e+06
511361
259561
231863
231036
230550
230009
229489
229050
228716
228478
228273
228008
227678
227348
227037
226742
226458
226184
225920
225665
225418
225180
224949
224725
224509
224299
224094
223895
223701
223513
223328
223149
222974
222803
222637
222475
222317
222164
222016
221872
221734
221600
221472
221349
221232
221121
221017
220920
220831
220750
220663
220623
220575
220537
220506
220495
220527
220630
220814
221025
221084
220859
220263
219450
219513
218772
218459
218162
217895
217615
217345
217076
216808
216549
216296
216047
215802
215561
215325
215094
214868
214645
214424
214208
213996
213793
213600
213415
213231
213044
212853
212663
212473
212286
440212
440677
441012
441818
442880
444257
445826
447752
450172
452641
455273
458146
461251
464497
467805
471135
474431
477600
480534
483153
485399
487226
488587
489453
489884
489935
489647
489086
488372
487572
486728
485880
485088
484427
484000
483857
483940
484103
484348
484837
485635
486966
488902
491480
494626
498263
502433
507214
512788
519328
526961
535762
545879
557421
570601
585583
602574
621684
642988
666642
692816
721781
753663
788923
828067
872029
922218
980144
1.04938e+06
1.13491e+06
1.22979e+06
975751
490300
253686
230435
229726
229303
228856
228450
228115
227828
227542
227212
226854
226511
226187
225879
225584
225299
225025
224761
224507
224261
224024
223795
223573
223359
223151
222949
222754
222564
222379
222200
222027
221859
221696
221539
221387
221241
221102
220969
220843
220723
220611
220507
220410
220321
220240
220168
220106
220054
220013
219968
219962
219962
219971
219989
220027
220109
220266
220510
220788
220917
220755
220208
219428
219508
218771
218458
218162
217895
217615
217345
217076
216808
216549
216296
216047
215802
215561
215325
215094
214868
214645
214424
214208
213996
213793
213600
213415
213231
213044
212853
212663
212473
212286
441210
441743
442041
442880
443979
445373
447016
449010
451352
453852
456553
459492
462612
465844
469157
472510
475828
479003
481930
484534
486757
488557
489889
490719
491105
491104
490745
490098
489285
488391
487487
486634
485902
485357
485032
484899
484884
484862
484933
485332
486094
487422
489354
491909
495006
498597
502711
507446
512999
519517
527112
535878
545941
557433
570565
585501
602438
621488
642726
666326
692435
721412
753401
788833
828361
872607
923142
981204
1.05059e+06
1.13775e+06
1.22805e+06
934532
460899
247144
228906
228338
227974
227578
227195
226833
226472
226095
225712
225349
225009
224687
224379
224083
223799
223527
223264
223012
222769
222536
222311
222093
221884
221682
221487
221298
221116
220940
220771
220608
220452
220303
220160
220025
219897
219778
219667
219564
219471
219387
219312
219248
219194
219150
219117
219097
219087
219093
219098
219129
219181
219242
219315
219411
219552
219770
220081
220434
220646
220569
220099
219374
219489
218768
218457
218162
217895
217615
217345
217076
216808
216549
216296
216047
215802
215561
215325
215094
214868
214645
214424
214208
213996
213793
213600
213415
213231
213044
212853
212663
212473
212286
442513
443062
443399
444257
445373
446804
448530
450531
452822
455353
458113
461080
464198
467434
470772
474155
477487
480659
483571
486150
488337
490098
491391
492183
492528
492482
492056
491332
490444
489502
488588
487770
487108
486619
486277
486008
485778
485554
485484
485836
486594
487930
489855
492375
495420
498956
503013
507705
513228
519710
527267
535995
546000
557433
570503
585378
602243
621213
642380
665919
691992
720979
753033
788542
828212
872635
923268
982012
1.05261e+06
1.14248e+06
1.22569e+06
884653
427899
240555
227208
226726
226359
225940
225513
225097
224687
224289
223912
223559
223225
222907
222604
222314
222036
221770
221515
221271
221036
220811
220595
220387
220188
219996
219812
219636
219466
219304
219150
219003
218863
218732
218609
218495
218391
218296
218212
218138
218076
218025
217985
217957
217942
217939
217949
217973
218007
218061
218117
218188
218289
218402
218528
218679
218879
219159
219536
219963
220257
220272
219899
219257
219435
218757
218451
218160
217895
217616
217345
217076
216808
216549
216296
216047
215802
215561
215325
215094
214868
214645
214424
214208
213996
213793
213600
213415
213231
213044
212853
212663
212474
212286
443874
444952
445010
445826
447016
448530
450295
452298
454596
457171
459971
462955
466090
469359
472730
476134
479470
482634
485527
488075
490222
491937
493183
493934
494236
494144
493654
492862
491918
490946
490034
489243
488601
488069
487581
487074
486590
486213
486087
486445
487222
488571
490478
492951
495934
499403
503399
508039
513516
519938
527438
536101
546028
557380
570371
585163
601932
620794
641869
665327
691381
720367
752445
788113
828003
872709
923880
983375
1.05585e+06
1.14792e+06
1.21833e+06
828415
390659
234342
225278
224828
224427
223971
223517
223084
222675
222289
221927
221584
221259
220950
220657
220377
220109
219854
219610
219377
219154
218940
218736
218541
218354
218176
218006
217843
217689
217543
217405
217276
217155
217045
216944
216854
216775
216708
216652
216610
216580
216564
216560
216570
216595
216632
216685
216753
216830
216930
217035
217147
217294
217455
217632
217835
218090
218430
218873
219373
219750
219860
219595
219049
219316
218727
218432
218152
217894
217616
217346
217077
216808
216549
216296
216047
215802
215561
215325
215094
214868
214645
214424
214208
213996
213793
213600
213415
213231
213044
212853
212663
212474
212286
445945
446883
446862
447752
449010
450531
452298
454340
456677
459289
462117
465132
468308
471616
475010
478420
481750
484901
487769
490282
492382
494043
495230
495927
496181
496037
495492
494651
493671
492682
491761
490946
490225
489524
488789
488025
487353
486914
486797
487178
487977
489334
491216
493638
496553
499946
503873
508449
513863
520210
527638
536206
546038
557282
570169
584850
601504
620238
641205
664585
690634
719594
751704
787503
827624
872795
924475
985502
1.06029e+06
1.1555e+06
1.20098e+06
768923
351888
228847
223131
222698
222274
221809
221359
220939
220547
220177
219829
219499
219186
218890
218609
218342
218088
217845
217614
217393
217183
216982
216791
216609
216435
216270
216114
215966
215827
215698
215577
215467
215367
215278
215200
215135
215083
215044
215018
215007
215011
215029
215062
215110
215174
215251
215345
215454
215573
215715
215868
216020
216208
216414
216637
216889
217195
217589
218092
218661
219120
219326
219176
218734
219100
218659
218385
218130
217886
217615
217346
217077
216809
216549
216296
216047
215802
215561
215325
215094
214868
214645
214425
214208
213996
213793
213600
213415
213231
213044
212853
212663
212474
212286
447604
448586
449415
450172
451352
452822
454596
456677
459045
461690
464561
467629
470855
474195
477600
481007
484325
487456
490292
492760
494807
496406
497520
498149
498343
498136
497535
496649
495634
494608
493628
492706
491800
490850
489860
488919
488166
487738
487665
488066
488881
490235
492087
494457
497299
500607
504457
508960
514298
520554
527884
536324
546033
557141
569898
584441
600963
619553
640393
663696
689690
718615
750840
786803
827268
873028
925760
988726
1.06546e+06
1.16374e+06
1.17115e+06
702340
315391
224212
220858
220446
220020
219566
219134
218734
218358
218004
217670
217354
217055
216773
216505
216251
216009
215779
215560
215352
215153
214964
214785
214615
214454
214302
214159
214026
213902
213789
213686
213595
213515
213448
213395
213355
213330
213320
213325
213346
213383
213436
213505
213590
213691
213807
213940
214088
214248
214429
214623
214815
215041
215288
215554
215850
216202
216645
217203
217834
218368
218666
218636
218301
218753
218533
218294
218080
217862
217608
217346
217078
216810
216550
216296
216047
215802
215561
215325
215094
214868
214645
214425
214208
213996
213793
213600
213415
213231
213044
212853
212663
212474
212286
450160
450727
451903
452641
453852
455353
457171
459289
461690
464374
467302
470429
473701
477067
480479
483882
487181
490283
493074
495487
497473
499000
500026
500573
500688
500399
499722
498772
497697
496593
495491
494387
493243
492050
490887
489884
489145
488759
488722
489130
489931
491264
493077
495392
498157
501373
505138
509554
514803
520940
528144
536430
545992
556937
569543
583925
600303
618739
639444
662684
688570
717537
749922
786110
827045
873529
927803
992647
1.07224e+06
1.17354e+06
1.12017e+06
629175
283441
220398
218542
218153
217732
217294
216881
216498
216138
215798
215477
215175
214889
214619
214363
214121
213891
213672
213464
213266
213078
212900
212732
212573
212424
212284
212154
212035
211927
211830
211745
211673
211615
211571
211542
211528
211531
211550
211586
211639
211709
211797
211901
212021
212158
212311
212480
212666
212863
213081
213313
213542
213803
214087
214392
214728
215121
215609
216215
216903
217504
217885
217975
217752
218249
218325
218138
217987
217811
217585
217340
217078
216811
216551
216297
216048
215802
215561
215325
215094
214868
214645
214425
214208
213996
213793
213600
213415
213231
213044
212853
212663
212474
212286
452872
453319
454537
455273
456553
458113
459971
462117
464561
467302
470294
473479
476794
480189
483615
487013
490286
493344
496073
498416
500328
501772
502696
503145
503161
502763
501981
500934
499761
498532
497259
495943
494584
493232
492005
491026
490344
490007
489972
490343
491101
492388
494145
496396
499071
502190
505858
510165
515292
521298
528350
536464
545856
556621
569059
583271
599503
617790
638384
661576
687384
716496
748995
785601
826993
874567
930522
996858
1.08107e+06
1.18305e+06
1.04226e+06
550744
257506
217242
216217
215845
215430
215007
214611
214243
213896
213569
213261
212971
212697
212438
212193
211961
211740
211531
211332
211144
210966
210797
210639
210490
210352
210225
210108
210003
209911
209831
209765
209714
209678
209658
209654
209668
209699
209748
209815
209900
210002
210123
210261
210415
210587
210774
210978
211199
211431
211682
211949
212212
212504
212822
213161
213533
213963
214490
215140
215876
216539
216991
217195
217095
217582
217989
217906
217835
217715
217534
217318
217072
216810
216552
216298
216048
215803
215561
215325
215094
214868
214645
214425
214208
213996
213793
213600
213415
213231
213044
212853
212663
212474
212286
455880
456114
457362
458146
459492
461080
462955
465132
467629
470429
473479
476715
480075
483506
486949
490340
493575
496572
499224
501483
503308
504653
505469
505806
505700
505165
504249
503073
501767
500380
498926
497423
495926
494516
493305
492384
491754
491436
491361
491645
492334
493535
495207
497370
499935
502932
506472
510659
515651
521513
528390
536320
545528
556110
568379
582425
598515
616669
637192
660342
686193
715472
748141
785324
827327
876197
933778
1.00267e+06
1.09156e+06
1.1894e+06
943001
472184
237649
214516
213893
213529
213118
212708
212328
211972
211638
211323
211026
210746
210482
210232
209997
209773
209562
209361
209171
208991
208821
208662
208513
208375
208248
208133
208031
207941
207865
207804
207758
207729
207716
207721
207744
207785
207845
207924
208022
208138
208273
208426
208596
208783
208987
209206
209442
209695
209960
210242
210539
210834
211154
211501
211872
212275
212738
213299
213987
214766
215483
215993
216298
216344
216788
217425
217610
217618
217561
217438
217268
217052
216805
216552
216300
216050
215803
215562
215325
215094
214868
214645
214425
214208
213996
213793
213600
213415
213231
213044
212853
212663
212474
212286
459017
459100
460413
461251
462612
464198
466090
468308
470855
473701
476794
480075
483480
486948
490402
493773
496951
499866
502423
504583
506311
507540
508241
508459
508219
507535
506470
505154
503702
502158
500552
498925
497368
495969
494804
493927
493299
492934
492781
492930
493499
494591
496146
498171
500589
503453
506854
510909
515753
521446
528131
535874
544890
555296
567398
581296
597256
615306
635805
658941
684992
714439
747534
785302
828170
878382
937669
1.01026e+06
1.10394e+06
1.18688e+06
835700
399186
223576
212014
211565
211202
210795
210399
210031
209688
209364
209060
208773
208502
208247
208007
207779
207564
207360
207167
206985
206813
206652
206502
206363
206236
206122
206021
205933
205860
205802
205761
205737
205730
205742
205772
205822
205892
205981
206089
206218
206364
206530
206713
206914
207132
207366
207616
207881
208163
208458
208767
209093
209415
209761
210134
210532
210963
211454
212046
212767
213582
214346
214904
215289
215499
215913
216622
217178
217331
217342
217287
217174
217004
216784
216546
216300
216051
215805
215563
215326
215094
214868
214645
214425
214208
213996
213793
213600
213415
213231
213044
212853
212663
212474
212286
462229
462288
463662
464497
465844
467434
469359
471616
474195
477067
480189
483506
486948
490439
493887
497217
500319
503136
505587
507642
509267
510367
510939
511030
510648
509809
508595
507143
505554
503879
502172
500487
498922
497556
496422
495532
494837
494343
494062
494061
494459
495404
496816
498683
500932
503646
506891
510781
515437
520947
527433
534997
543825
554081
566032
579815
595671
613671
634191
657368
683730
713389
747172
785521
829556
881186
942776
1.0193e+06
1.11842e+06
1.16089e+06
735789
331457
214749
209611
209232
208865
208464
208081
207725
207393
207080
206785
206507
206245
205999
205766
205546
205338
205142
204957
204782
204619
204467
204326
204198
204084
203982
203896
203825
203769
203731
203711
203709
203727
203764
203821
203899
203997
204115
204252
204410
204586
204781
204994
205223
205470
205732
206010
206301
206610
206931
207266
207617
207963
208331
208728
209150
209605
210122
210740
211489
212334
213138
213735
214178
214549
214998
215682
216512
216917
217049
217072
217027
216914
216735
216525
216294
216052
215807
215565
215327
215095
214868
214645
214425
214208
213996
213793
213600
213415
213231
213044
212853
212663
212474
212286
465557
465585
466992
467805
469157
470772
472730
475010
477600
480479
483615
486949
490402
493887
497294
500553
503556
506261
508603
510552
512070
513044
513487
513457
512937
511958
510613
509041
507340
505566
503796
502089
500525
499163
498001
497010
496170
495476
495013
494852
495089
495877
497137
498827
500891
503412
506447
510145
514605
519941
526237
533638
542292
552428
564254
577967
593755
611773
632369
655708
682434
712405
746923
786022
831577
884813
949310
1.03032e+06
1.1342e+06
1.10192e+06
631064
279081
209361
207242
206894
206521
206128
205757
205414
205091
204788
204502
204233
203980
203741
203515
203303
203102
202914
202736
202570
202415
202273
202143
202027
201925
201838
201768
201714
201679
201661
201664
201686
201728
201791
201876
201980
202106
202252
202418
202604
202809
203031
203271
203528
203800
204089
204392
204708
205040
205386
205743
206117
206485
206873
207289
207732
208208
208747
209389
210161
211031
211868
212498
212983
213497
214034
214693
215638
216288
216637
216779
216816
216772
216649
216477
216274
216047
215808
215567
215329
215096
214868
214645
214425
214208
213996
213793
213600
213415
213231
213044
212853
212663
212474
212286
468961
468874
470322
471135
472510
474155
476134
478420
481007
483882
487013
490340
493773
497217
500553
503718
506611
509199
511433
513274
514666
515512
515824
515663
515014
513912
512460
510793
509006
507163
505344
503615
502024
500600
499327
498145
497084
496180
495538
495232
495332
495957
497055
498519
500344
502639
505458
508972
513253
518433
524557
531815
540320
550369
562108
575804
591580
609700
630451
654059
681148
711636
746887
787040
834010
889424
957406
1.04399e+06
1.14854e+06
997530
522761
242863
205789
204888
204553
204175
203791
203433
203100
202788
202494
202217
201956
201710
201479
201261
201055
200862
200681
200511
200354
200208
200076
199958
199855
199768
199697
199644
199610
199595
199599
199625
199672
199740
199829
199940
200072
200226
200399
200592
200805
201036
201285
201550
201832
202128
202440
202767
203105
203459
203825
204203
204597
204985
205390
205824
206285
206780
207338
208000
208792
209683
210544
211208
211726
212351
212996
213668
214654
215451
216033
216370
216526
216567
216512
216389
216226
216027
215803
215568
215331
215098
214870
214645
214425
214208
213996
213793
213600
213415
213231
213044
212853
212663
212474
212286
472325
472114
473607
474431
475828
477487
479470
481750
484325
487181
490286
493575
496951
500319
503556
506611
509393
511871
514009
515754
517021
517742
517935
517647
516874
515657
514101
512344
510478
508570
506687
504895
503213
501641
500183
498792
497517
496417
495611
495175
495135
495560
496443
497667
499255
501337
503971
507332
511466
516512
522481
529613
537993
547990
559686
573428
589253
607575
628544
652580
680087
711342
747222
788679
837456
895587
967243
1.06106e+06
1.15442e+06
865976
421864
219627
203035
202545
202210
201831
201458
201112
200789
200486
200201
199932
199679
199441
199217
199006
198808
198622
198449
198288
198139
198004
197884
197778
197689
197618
197565
197531
197516
197523
197551
197601
197673
197767
197882
198020
198179
198358
198558
198777
199015
199271
199544
199833
200138
200457
200790
201137
201496
201869
202255
202651
203062
203468
203888
204338
204816
205327
205901
206580
207389
208299
209179
209879
210411
211134
211858
212587
213608
214483
215228
215781
216119
216287
216317
216253
216140
215980
215784
215564
215333
215101
214872
214647
214425
214208
213996
213793
213600
213415
213231
213044
212853
212663
212474
212286
475535
475252
476770
477600
479003
480659
482634
484901
487456
490283
493344
496572
499866
503136
506261
509199
511871
514238
516280
517924
519058
519650
519730
519320
518432
517106
515442
513579
511606
509598
507613
505717
503913
502175
500523
498926
497465
496194
495218
494610
494413
494639
495268
496290
497670
499577
502069
505313
509325
514248
520084
527115
535416
545409
557137
570986
586965
605544
626874
651411
679401
711499
748419
791394
842151
903296
979456
1.08055e+06
1.13662e+06
737566
334336
206728
200579
200212
199869
199492
199131
198796
198484
198190
197913
197653
197407
197176
196959
196756
196565
196387
196222
196070
195931
195808
195700
195608
195535
195481
195446
195432
195440
195469
195521
195595
195693
195812
195954
196117
196302
196507
196732
196975
197237
197516
197812
198123
198449
198788
199140
199507
199884
200275
200678
201090
201517
201939
202373
202837
203329
203854
204444
205138
205963
206890
207783
208518
209049
209854
210617
211438
212512
213438
214279
215000
215538
215888
216049
216061
216005
215896
215738
215545
215329
215102
214875
214649
214427
214209
213996
213793
213600
213415
213231
213044
212853
212663
212474
212286
478508
478193
479708
480534
481930
483571
485527
487769
490292
493074
496073
499224
502423
505587
508603
511433
514009
516280
518223
519756
520753
521207
521167
520611
519578
518110
516325
514347
512255
510133
508035
506012
504070
502163
500326
498527
496875
495441
494300
493523
493174
493209
493601
494470
495684
497462
499853
503002
506908
511721
517456
524425
532716
542761
554587
568601
584790
603730
625464
650612
679286
712379
750457
795086
848419
912912
995160
1.10119e+06
1.06855e+06
612239
268560
200253
198215
197887
197534
197163
196813
196490
196187
195901
195633
195380
195142
194919
194709
194512
194329
194160
194003
193861
193734
193623
193529
193453
193396
193360
193346
193353
193383
193436
193512
193612
193734
193879
194046
194234
194444
194673
194921
195188
195472
195773
196090
196421
196766
197124
197494
197878
198273
198679
199098
199525
199966
200402
200848
201324
201829
202367
202971
203679
204518
205459
206361
207120
207651
208509
209303
210216
211356
212332
213238
214070
214772
215311
215664
215803
215815
215764
215655
215500
215311
215099
214877
214652
214430
214210
213997
213794
213600
213415
213231
213044
212853
212663
212474
212286
481187
480856
482335
483153
484534
486150
488075
490282
492760
495487
498416
501483
504583
507642
510552
513274
515754
517924
519756
521138
521981
522278
522098
521404
520226
518611
516692
514590
512379
510151
507946
505781
503666
501559
499516
497536
495726
494164
492896
491972
491471
491319
491567
492278
493386
495067
497375
500433
504243
508968
514655
521611
529970
540115
552120
566334
582880
602206
624565
650325
679903
713910
753597
800022
855995
924947
1.01447e+06
1.1201e+06
941164
484254
227638
196619
195885
195567
195208
194845
194507
194194
193900
193623
193363
193118
192887
192671
192468
192279
192105
191944
191797
191666
191551
191454
191375
191315
191277
191261
191267
191297
191350
191427
191528
191652
191799
191968
192160
192373
192606
192858
193129
193417
193722
194043
194379
194729
195092
195467
195855
196254
196664
197085
197519
197958
198412
198860
199317
199805
200321
200871
201487
202207
203059
204007
204918
205680
206229
207118
207933
208922
210128
211163
212127
213037
213857
214553
215097
215431
215561
215579
215526
215418
215266
215081
214874
214654
214433
214213
213999
213794
213601
213415
213231
213044
212853
212663
212474
212286
483509
483176
484590
485399
486757
488337
490222
492382
494807
497473
500328
503308
506311
509267
512070
514666
517021
519058
520753
521981
522674
522830
522506
521669
520350
518598
516555
514330
511992
509625
507269
504932
502634
500342
498134
496027
494108
492456
491096
490051
489410
489119
489256
489805
490847
492443
494677
497650
501386
506068
511770
518773
527273
537568
549805
564300
581263
601125
624106
650693
681187
716547
757659
806631
865418
940003
1.03694e+06
1.12464e+06
785997
372983
204855
193979
193578
193256
192893
192541
192215
191911
191626
191357
191105
190867
190644
190435
190240
190059
189893
189742
189606
189487
189386
189303
189241
189199
189181
189185
189213
189266
189343
189444
189569
189717
189889
190082
190298
190533
190789
191063
191355
191663
191988
192328
192682
193049
193429
193820
194223
194637
195061
195496
195942
196394
196859
197319
197785
198282
198808
199368
199994
200724
201585
202534
203453
204204
204785
205698
206522
207565
208829
209926
210950
211923
212831
213648
214348
214880
215196
215330
215348
215292
215186
215038
214856
214651
214435
214216
214002
213796
213601
213415
213231
213044
212853
212663
212474
212286
485429
485104
486426
487226
488557
490098
491937
494043
496406
499000
501772
504653
507540
510367
513044
515512
517742
519650
521207
522278
522830
522879
522424
521438
519954
518047
515862
513489
511001
508485
505986
503509
501072
498650
496328
494129
492130
490401
488963
487811
487040
486643
486644
487066
488074
489594
491758
494663
498364
503059
508847
515960
524654
535160
547703
562565
580047
600525
624264
651684
683329
720075
763283
814647
877698
957914
1.06378e+06
1.07388e+06
645918
282677
194719
191613
191287
190952
190592
190252
189937
189642
189366
189106
188861
188630
188414
188213
188026
187854
187698
187557
187433
187327
187241
187174
187129
187107
187109
187135
187186
187262
187362
187488
187637
187809
188004
188221
188459
188717
188993
189288
189600
189928
190271
190628
190999
191383
191778
192185
192602
193030
193467
193914
194372
194835
195310
195779
196254
196759
197293
197861
198495
199232
200099
201046
201969
202706
203319
204253
205078
206161
207469
208622
209704
210737
211718
212630
213452
214146
214659
214971
215105
215118
215062
214958
214813
214635
214432
214218
214005
213799
213603
213416
213231
213044
212853
212663
212474
212286
486893
486595
487795
488587
489889
491391
493183
495230
497520
500026
502696
505469
508241
510939
513487
515824
517935
519730
521167
522098
522506
522424
521814
520658
518992
516928
514594
512082
509478
506859
504263
501680
499129
496597
494180
491911
489848
488048
486542
485295
484402
483908
483789
484133
485104
486556
488668
491541
495262
500045
505997
513294
522237
533022
545926
561247
579351
600517
625126
653486
686482
724790
770313
824857
892703
980432
1.08883e+06
949641
500677
227562
190198
189314
189007
188661
188308
187980
187675
187390
187121
186869
186632
186409
186201
186007
185829
185666
185520
185391
185281
185189
185118
185069
185044
185042
185065
185113
185187
185287
185411
185560
185732
185928
186146
186385
186645
186923
187220
187535
187865
188211
188572
188946
189333
189732
190143
190564
190994
191436
191884
192342
192811
193283
193767
194245
194726
195238
195778
196352
196992
197735
198605
199553
200472
201197
201835
202782
203610
204723
206059
207256
208391
209482
210529
211520
212440
213259
213938
214442
214754
214881
214891
214837
214736
214593
214416
214216
214007
213803
213606
213418
213232
213044
212853
212663
212474
212286
487868
487624
488668
489453
490719
492183
493934
495927
498149
500573
503145
505806
508459
511030
513457
515663
517647
519320
520611
521404
521669
521438
520658
519304
517456
515256
512812
510218
507551
504862
502187
499517
496876
494259
491774
489451
487344
485476
483896
482553
481544
480958
480745
481035
481975
483376
485473
488368
492171
497093
503236
510776
519997
531173
544531
560518
579248
601253
626639
656223
690449
730992
778731
837673
910927
1.00837e+06
1.09852e+06
779868
371586
199192
187449
187048
186737
186385
186043
185726
185430
185154
184894
184649
184420
184205
184005
183820
183651
183498
183363
183247
183151
183075
183021
182991
182985
183005
183050
183121
183218
183341
183489
183661
183856
184075
184315
184575
184855
185154
185470
185803
186152
186516
186893
187284
187687
188101
188525
188960
189403
189856
190316
190785
191263
191743
192234
192718
193205
193722
194266
194845
195489
196237
197110
198064
198971
199682
200338
201293
202123
203257
204609
205838
207017
208161
209269
210329
211330
212250
213062
213731
214233
214542
214660
214668
214616
214516
214375
214200
214005
213805
213610
213421
213234
213045
212853
212663
212473
212286
488386
488207
489102
489884
491105
492528
494236
496181
498343
500688
503161
505700
508219
510648
512937
515014
516874
518432
519578
520226
520350
519954
518992
517456
515481
513198
510688
508037
505315
502572
499831
497091
494379
491705
489177
486814
484688
482742
481085
479645
478530
477860
477570
477820
478734
480122
482254
485227
489161
494243
500602
508442
518038
529747
543692
560355
579833
602648
629135
659986
695943
738400
789593
852423
933278
1.04046e+06
1.04346e+06
623038
271126
187934
185116
184803
184477
184127
183796
183490
183204
182936
182684
182448
182226
182019
181827
181652
181493
181351
181229
181127
181046
180987
180952
180941
180956
180997
181065
181159
181279
181425
181596
181791
182009
182249
182510
182791
183091
183409
183745
184096
184462
184843
185237
185644
186062
186490
186929
187376
187832
188296
188766
189243
189730
190217
190714
191203
191694
192214
192762
193344
193992
194745
195622
196575
197463
198163
198832
199788
200621
201768
203127
204379
205591
206780
207941
209063
210135
211140
212059
212865
213531
214029
214331
214444
214449
214398
214300
214160
213990
213803