/*--------------------------------*- C++ -*----------------------------------*\
  =========                 |
  \\      /  F ield         | OpenFOAM: The Open Source CFD Toolbox
   \\    /   O peration     | Website:  https://openfoam.org
    \\  /    A nd           | Version:  13
     \\/     M anipulation  |
\*---------------------------------------------------------------------------*/
FoamFile
{
    format      ascii;
    class       surfaceScalarField;
    location    "0.0016";
    object      phi;
}
// * * * * * * * * * * * * * * * * * * * * * * * * * * * * * * * * * * * * * //

dimensions      [1 0 -1 0 0 0 0];

internalField   nonuniform List<scalar> 
66301
(
0.017369
0.017369
0.0350753
0.0170226
0.0524119
0.0173498
0.0695547
0.0174389
0.0865151
0.0174574
0.103682
0.0166887
0.121118
0.0164751
0.138428
0.0164464
0.152912
0.0190259
0.166561
0.0193739
0.180788
0.0188711
0.195217
0.01852
0.209444
0.0182195
0.223335
0.018106
0.236898
0.0181988
0.249975
0.0182923
0.262403
0.0183511
0.274087
0.0184013
0.284879
0.0185391
0.294606
0.0187215
0.303096
0.0189094
0.310297
0.0189876
0.316282
0.0189088
0.321182
0.018686
0.325314
0.0184223
0.328888
0.0181161
0.332032
0.0176835
0.334949
0.0172458
0.337779
0.0169674
0.340727
0.0167504
0.343859
0.016552
0.347071
0.0164167
0.350233
0.0163889
0.353287
0.0163212
0.356234
0.0162301
0.35916
0.0162284
0.362115
0.0163847
0.364979
0.0166776
0.367588
0.0170153
0.369813
0.0171954
0.371633
0.0172614
0.373077
0.0173237
0.374563
0.0172036
0.376283
0.0172018
0.378636
0.0172438
0.38215
0.0171869
0.386989
0.0172862
0.393148
0.0177145
0.401105
0.0180425
0.411455
0.0181728
0.424639
0.018416
0.441141
0.0187772
0.461383
0.0193022
0.48573
0.0199779
0.514751
0.0206047
0.548945
0.0212197
0.588901
0.0217865
0.635096
0.0224405
0.688098
0.0231257
0.748329
0.0238666
0.816429
0.0243857
0.893106
0.0248573
0.979361
0.0256591
1.07661
0.0264152
1.1867
0.0274437
1.31333
0.0275837
1.46114
0.02851
1.6396
0.0301316
1.86883
0.033915
2.19331
0.0409842
2.54894
0.0425535
2.60499
0.0310469
1.15242
0.0220759
0.42677
0.0128791
0.412168
0.00847278
0.410818
0.0082629
0.409661
0.00799856
0.407927
0.00763179
0.406172
0.00715551
0.404403
0.00655998
0.402554
0.00581924
0.400355
0.00473406
0.397682
0.00270483
0.395037
0.00651556
0.393662
0.00677342
0.392481
0.00660597
0.39121
0.00647165
0.389956
0.00637113
0.388768
0.00626705
0.387635
0.00615659
0.386546
0.0060431
0.385497
0.00592878
0.384484
0.00581337
0.383505
0.00569813
0.382557
0.00558259
0.381639
0.00546723
0.380748
0.00535235
0.379883
0.00523776
0.379041
0.00512375
0.378222
0.00501038
0.377424
0.00489772
0.376646
0.00478553
0.375886
0.00467394
0.375143
0.00456303
0.374416
0.0044526
0.373703
0.0043423
0.373005
0.00423196
0.37232
0.00412145
0.371646
0.00401039
0.370984
0.00389821
0.370333
0.00378444
0.369693
0.00366873
0.369064
0.00355057
0.368449
0.00342916
0.367849
0.00330352
0.367262
0.00317273
0.366684
0.00303666
0.366108
0.00289507
0.36552
0.00274695
0.364917
0.00259269
0.364337
0.00242819
0.363845
0.00223646
0.363437
0.00202669
0.363446
0.00183123
0.364146
0.00166704
0.36631
0.00144399
0.371239
0.00121243
0.380938
0.000984233
0.39831
0.000762353
0.427194
0.000560414
0.472024
0.000381176
0.536212
0.000225468
0.618072
0.000103032
0.705963
5.05886e-05
0.777788
2.07851e-05
0.820178
2.25653e-05
0.835184
1.22959e-05
0.835769
-6.31493e-07
0.833876
1.64151e-07
0.831433
-1.56862e-06
0.82873
-4.76143e-06
0.825964
-7.5807e-06
0.823385
-8.96214e-06
0.820986
-9.18046e-06
0.818751
-8.85956e-06
0.816735
-8.38637e-06
0.814895
-7.93727e-06
0.813139
-7.58101e-06
0.811385
-7.35203e-06
0.809597
-7.21047e-06
0.807779
-7.10845e-06
0.805958
-7.02072e-06
0.80416
-6.94673e-06
0.802408
-6.88771e-06
0.800707
-6.83956e-06
0.799053
-6.79879e-06
0.797429
-6.76447e-06
0.795819
-6.7268e-06
0.794217
-6.67568e-06
0.79263
-6.63762e-06
0.791073
-6.626e-06
0.78955
-6.6101e-06
0.788056
-6.58863e-06
0.786585
-6.56628e-06
0.78514
-6.53632e-06
-6.50308e-06
0.0170226
0.0350753
0.0343822
0.0343822
0.0515443
0.0348687
0.0686689
0.0348771
0.0856754
0.0348096
0.10225
0.034616
0.119829
0.0334065
0.138271
0.0311569
0.15663
0.0340753
0.174281
0.0351779
0.190746
0.0354328
0.206352
0.0354528
0.221458
0.03545
0.236206
0.0354908
0.250501
0.0355247
0.2642
0.0355652
0.277356
0.0355793
0.290018
0.0355414
0.30206
0.0355913
0.313284
0.0357051
0.32351
0.0358375
0.332607
0.0358543
0.340522
0.0357111
0.347276
0.0354191
0.353155
0.0350423
0.358327
0.0346744
0.362648
0.034286
0.366219
0.033992
0.369412
0.033803
0.372554
0.0336135
0.375633
0.0334848
0.378588
0.0333736
0.381421
0.0333294
0.38419
0.0331567
0.386857
0.0330065
0.3894
0.0331347
0.392012
0.0333186
0.394801
0.0334915
0.397542
0.0336667
0.400137
0.0336919
0.402561
0.0336685
0.404914
0.0336698
0.407189
0.0336798
0.409675
0.0338118
0.412882
0.0338141
0.416813
0.0340902
0.421854
0.0345718
0.42869
0.0350581
0.437753
0.0352796
0.449102
0.0356551
0.463304
0.0361035
0.480541
0.037089
0.501507
0.0381979
0.526818
0.0393832
0.557206
0.0403206
0.593075
0.0413309
0.634881
0.0424013
0.683269
0.0434885
0.738701
0.0447786
0.8017
0.04624
0.872984
0.0474523
0.952986
0.0491215
1.0429
0.0509976
1.14402
0.0523393
1.25707
0.0547725
1.3847
0.0567933
1.53149
0.0624665
1.70701
0.0695007
1.92968
0.0772925
2.23824
0.0874825
2.57723
0.0930333
2.63808
0.0846485
1.18626
0.0455545
0.427148
0.0194779
0.41096
0.0158501
0.409471
0.0152553
0.407854
0.0146861
0.405626
0.0140363
0.403363
0.0133419
0.40121
0.0127193
0.399192
0.0123772
0.397832
0.0126249
0.397182
0.0132402
0.39713
0.0138597
0.395634
0.0137564
0.39415
0.0134563
0.392902
0.01319
0.391735
0.0129487
0.390592
0.0127066
0.38948
0.0124617
0.388402
0.0122159
0.387357
0.0119702
0.386343
0.0117258
0.385357
0.0114821
0.384398
0.0112392
0.383464
0.0109976
0.382555
0.0107576
0.381668
0.0105186
0.380803
0.010281
0.379958
0.0100451
0.379133
0.00981074
0.378326
0.00957772
0.377536
0.00934597
0.376761
0.00911554
0.376003
0.00888614
0.375258
0.00865738
0.374527
0.00842884
0.373808
0.0082
0.373102
0.00797014
0.372406
0.00773855
0.371722
0.0075046
0.371049
0.00726737
0.370387
0.00702583
0.369739
0.00677855
0.369106
0.0065243
0.368486
0.00626167
0.367874
0.00599052
0.367262
0.00570995
0.366638
0.00541698
0.365998
0.00511599
0.365372
0.00480297
0.364816
0.00444465
0.364332
0.00405627
0.364304
0.00366083
0.364933
0.00336982
0.367012
0.00295982
0.371833
0.00253392
0.38141
0.00211504
0.398655
0.00170671
0.427424
0.00131506
0.472149
0.000942145
0.536244
0.000594874
0.618065
0.000292366
0.705979
9.27028e-05
0.777869
1.3633e-05
0.820347
2.38074e-06
0.835438
-1.54778e-05
0.836037
-9.34217e-06
0.834152
-8.72395e-06
0.831713
-7.48557e-06
0.829008
-7.8477e-06
0.826235
-8.44654e-06
0.823647
-8.66696e-06
0.821238
-8.7356e-06
0.818993
-8.36822e-06
0.816968
-7.97835e-06
0.81512
-7.64524e-06
0.813356
-7.38393e-06
0.811595
-7.18308e-06
0.809799
-7.01305e-06
0.807974
-6.86653e-06
0.806145
-6.73965e-06
0.804341
-6.6273e-06
0.802581
-6.53857e-06
0.800873
-6.46939e-06
0.799212
-6.41584e-06
0.79758
-6.37095e-06
0.795963
-6.31998e-06
0.794354
-6.25179e-06
0.79276
-6.26221e-06
0.791196
-6.20802e-06
0.789666
-6.16123e-06
0.788165
-6.12201e-06
0.786686
-6.0877e-06
0.785234
-6.04643e-06
-6.00449e-06
0.0173498
0.0524119
0.0348687
0.0515443
0.0522001
0.0522001
0.0693649
0.052279
0.086454
0.0521268
0.103268
0.0520849
0.119194
0.0510212
0.134236
0.0496502
0.150857
0.0510609
0.167452
0.0520431
0.18342
0.0524479
0.198895
0.052645
0.214062
0.0528484
0.228895
0.052961
0.243197
0.0529663
0.256884
0.0530601
0.27
0.0531106
0.282538
0.0530652
0.294376
0.0530828
0.305355
0.0531424
0.315329
0.0531916
0.324176
0.0530929
0.33184
0.0528341
0.3384
0.0524038
0.344085
0.0519158
0.348946
0.0514944
0.352872
0.0511433
0.356145
0.0508701
0.359138
0.0506239
0.361996
0.0503975
0.364673
0.0503158
0.367204
0.0503072
0.369718
0.0502962
0.372359
0.0501819
0.375255
0.0501028
0.378515
0.0501664
0.381981
0.0502535
0.385291
0.0502433
0.388062
0.0503318
0.39048
0.0502101
0.392699
0.050089
0.394882
0.0500301
0.397099
0.0501108
0.399602
0.0503182
0.40271
0.0503875
0.40657
0.0509576
0.411669
0.0515967
0.418468
0.0520686
0.427202
0.0523663
0.438125
0.0530938
0.451793
0.0539043
0.468646
0.0553912
0.489377
0.0569099
0.514556
0.058463
0.54475
0.0597209
0.580324
0.0611901
0.62179
0.062758
0.669722
0.0643508
0.724563
0.0663093
0.786737
0.068583
0.856784
0.0707496
0.935345
0.073568
1.02331
0.0766327
1.12229
0.079432
1.23405
0.0840674
1.36237
0.0885726
1.51355
0.0953728
1.69608
0.103421
1.92613
0.111309
2.23946
0.121826
2.56189
0.134227
2.60443
0.129827
1.12119
0.077495
0.422397
0.0279945
0.408561
0.0231698
0.407049
0.0224426
0.405363
0.0218517
0.4032
0.0212941
0.401172
0.0208656
0.399446
0.0206858
0.398032
0.0208067
0.396833
0.0211688
0.395687
0.0212685
0.39441
0.020743
0.393013
0.0203238
0.391689
0.0199278
0.390453
0.0195518
0.389271
0.0191801
0.38813
0.0188079
0.387028
0.0184379
0.385966
0.0180696
0.384939
0.0177033
0.383945
0.0173401
0.382982
0.016979
0.382048
0.0166203
0.381141
0.0162643
0.380259
0.0159113
0.379401
0.0155607
0.378565
0.0152127
0.377751
0.0148677
0.376956
0.0145255
0.37618
0.0141858
0.375422
0.0138482
0.37468
0.0135129
0.373954
0.0131793
0.373242
0.0128467
0.372544
0.0125144
0.371859
0.0121816
0.371187
0.0118475
0.370526
0.0115107
0.369877
0.0111703
0.36924
0.0108249
0.368616
0.0104731
0.368006
0.010113
0.367413
0.00974321
0.366834
0.00936143
0.366266
0.00896701
0.365701
0.00856013
0.36513
0.00813464
0.364543
0.00769957
0.363975
0.00725058
0.363486
0.00673381
0.363074
0.00618993
0.363091
0.00566458
0.363792
0.00522381
0.365937
0.00466337
0.370826
0.00407548
0.380476
0.00349048
0.397809
0.00290891
0.426684
0.00232476
0.471534
0.0017423
0.535767
0.0011821
0.617723
0.000690596
0.705779
0.000329105
0.777802
0.000111136
0.820344
1.05189e-05
0.83544
-1.68438e-05
0.836038
-1.31846e-05
0.834153
-1.36875e-05
0.831714
-1.27354e-05
0.829008
-1.08324e-05
0.826235
-9.36528e-06
0.823647
-8.73306e-06
0.821238
-8.50775e-06
0.818994
-8.16083e-06
0.816969
-7.80599e-06
0.815121
-7.51385e-06
0.813356
-7.30505e-06
0.811595
-7.09308e-06
0.809799
-6.88682e-06
0.807974
-6.70476e-06
0.806145
-6.55288e-06
0.804341
-6.42923e-06
0.802581
-6.3272e-06
0.800873
-6.24325e-06
0.799212
-6.17356e-06
0.797581
-6.11309e-06
0.795963
-6.05719e-06
0.794354
-6.00995e-06
0.79276
-5.97468e-06
0.791196
-5.92035e-06
0.789666
-5.86761e-06
0.788164
-5.82204e-06
0.786686
-5.78307e-06
0.785234
-5.73916e-06
-5.69856e-06
0.0174389
0.0695547
0.0348771
0.0686689
0.052279
0.0693649
0.0695274
0.0695274
0.0867024
0.0693152
0.103719
0.0691489
0.11985
0.0685619
0.13529
0.068079
0.151307
0.0686212
0.167242
0.0693046
0.182883
0.069675
0.198287
0.0700069
0.213408
0.0703041
0.228063
0.0704151
0.242179
0.0704175
0.25579
0.0705302
0.268892
0.0706062
0.281408
0.0705568
0.293197
0.0705498
0.304109
0.0705571
0.314001
0.0705285
0.322744
0.0703302
0.330252
0.0700098
0.336592
0.0695566
0.341996
0.0690328
0.346526
0.0685991
0.350182
0.0682336
0.353248
0.0678846
0.356024
0.0675365
0.358642
0.0672418
0.361179
0.0671262
0.363795
0.0671077
0.366656
0.0670463
0.369871
0.0670024
0.373461
0.0670509
0.377211
0.0671849
0.380729
0.067321
0.383683
0.0671692
0.386044
0.0670731
0.388175
0.0667346
0.390264
0.0664921
0.392416
0.0663729
0.394652
0.0665107
0.397172
0.0667904
0.400199
0.0669971
0.404008
0.0677961
0.409086
0.0685025
0.415695
0.069081
0.424042
0.069712
0.434562
0.0708313
0.447859
0.0719829
0.464495
0.0738218
0.485174
0.075553
0.510355
0.0774141
0.540518
0.0790325
0.576
0.0810322
0.617338
0.0831427
0.665118
0.0852726
0.719784
0.0878838
0.781832
0.0908341
0.851747
0.0937892
0.93045
0.0973225
1.01884
0.101425
1.11871
0.105562
1.23275
0.111502
1.36458
0.117794
1.51991
0.125131
1.70582
0.134139
1.93835
0.14439
2.25683
0.159129
2.56976
0.181889
2.60158
0.174311
1.02637
0.0986871
0.416835
0.0358052
0.406064
0.0306004
0.40464
0.0299949
0.403144
0.0295632
0.401251
0.0292151
0.399545
0.028987
0.398083
0.0288624
0.396754
0.0287262
0.395456
0.0284181
0.394057
0.0278553
0.392617
0.0272538
0.391257
0.0267302
0.389971
0.0262326
0.38874
0.0257412
0.387555
0.025253
0.386412
0.0247681
0.385311
0.0242889
0.384248
0.0238138
0.383221
0.0233432
0.382226
0.0228778
0.381263
0.022417
0.380329
0.0219606
0.379423
0.0215092
0.378542
0.0210629
0.377685
0.0206211
0.376852
0.0201837
0.376041
0.0197513
0.37525
0.0193232
0.374479
0.0188989
0.373726
0.0184778
0.37299
0.0180599
0.372271
0.0176441
0.371567
0.0172293
0.370878
0.0168142
0.370203
0.0163977
0.369541
0.0159785
0.368892
0.0155549
0.368256
0.015125
0.367632
0.0146873
0.367023
0.0142399
0.366429
0.0137804
0.365852
0.0133075
0.365291
0.0128179
0.364742
0.0123103
0.364196
0.0117871
0.363647
0.0112373
0.363082
0.0106751
0.362537
0.0100965
0.362076
0.00942553
0.361687
0.00874404
0.361724
0.00808538
0.362477
0.00749271
0.364669
0.00679405
0.369601
0.00604535
0.379294
0.00528459
0.396672
0.00451501
0.425599
0.00373038
0.47053
0.00293513
0.534898
0.00215011
0.617053
0.00141498
0.705335
0.00080692
0.777574
0.000370478
0.820266
0.00011555
0.835434
1.4659e-05
0.836039
-1.27903e-05
0.834154
-1.34281e-05
0.831714
-1.40811e-05
0.829008
-1.36118e-05
0.826235
-1.08348e-05
0.823646
-9.43502e-06
0.821238
-8.74355e-06
0.818994
-8.24021e-06
0.816969
-7.85491e-06
0.815121
-7.57989e-06
0.813356
-7.35303e-06
0.811595
-7.12098e-06
0.809799
-6.89542e-06
0.807974
-6.69326e-06
0.806145
-6.51947e-06
0.804341
-6.37651e-06
0.802581
-6.25767e-06
0.800873
-6.15914e-06
0.799212
-6.07273e-06
0.79758
-5.9964e-06
0.795963
-5.92912e-06
0.794354
-5.87239e-06
0.79276
-5.81928e-06
0.791195
-5.76962e-06
0.789665
-5.71931e-06
0.788164
-5.67549e-06
0.786686
-5.63642e-06
0.785233
-5.59468e-06
-5.55822e-06
0.0174574
0.0865151
0.0348096
0.0856754
0.0521268
0.086454
0.0693152
0.0867024
0.0864353
0.0864353
0.103381
0.0862134
0.119799
0.0860611
0.13574
0.085903
0.151672
0.0859816
0.167539
0.0864046
0.183243
0.0867722
0.198732
0.0871539
0.213862
0.0874472
0.228507
0.0875639
0.242686
0.0876032
0.256415
0.08776
0.269642
0.0878688
0.282258
0.0878308
0.294125
0.0878206
0.305098
0.087797
0.315018
0.0877315
0.323742
0.0874928
0.33115
0.087192
0.337394
0.0867929
0.34267
0.0862909
0.347013
0.0858807
0.350505
0.0854893
0.35341
0.0850456
0.356028
0.0845979
0.358573
0.084225
0.361237
0.0840287
0.364179
0.0839723
0.367496
0.0839588
0.371174
0.0840848
0.375087
0.0842424
0.378847
0.0843553
0.382059
0.0843644
0.384658
0.0839548
0.386836
0.0836087
0.38893
0.0831165
0.391053
0.0828634
0.393216
0.0827634
0.395426
0.0829762
0.39787
0.08332
0.400768
0.0836645
0.404498
0.0846024
0.409497
0.0853534
0.415911
0.0861731
0.424033
0.087174
0.434382
0.0886125
0.447557
0.0900167
0.464176
0.0920914
0.484873
0.0939649
0.510029
0.0961616
0.540111
0.0981775
0.57549
0.10071
0.616714
0.103343
0.664369
0.105974
0.718915
0.109153
0.780946
0.112632
0.850944
0.116263
0.930054
0.120388
1.01935
0.12548
1.12047
0.131115
1.23628
0.138118
1.36934
0.145919
1.52481
0.154908
1.7107
0.165301
1.94512
0.178478
2.27142
0.198117
2.56174
0.227781
2.58167
0.210339
0.911756
0.112591
0.411434
0.043101
0.403756
0.0382895
0.402532
0.0377789
0.401133
0.0373823
0.399372
0.0369839
0.397719
0.0365707
0.396185
0.0360978
0.39468
0.0355168
0.393164
0.0348418
0.391667
0.0341581
0.390254
0.0335287
0.38892
0.0329274
0.387642
0.0323361
0.386412
0.0317516
0.38523
0.0311745
0.384092
0.0306042
0.382997
0.0300426
0.381941
0.0294879
0.380922
0.0289404
0.379936
0.0284005
0.378983
0.0278679
0.378059
0.0273422
0.377163
0.0268235
0.376294
0.0263122
0.375451
0.0258072
0.374631
0.0253083
0.373833
0.0248157
0.373057
0.0243285
0.372301
0.0238455
0.371564
0.023366
0.370845
0.0228892
0.370143
0.0224137
0.369457
0.0219376
0.368786
0.0214592
0.36813
0.0209769
0.367487
0.0204887
0.366859
0.0199923
0.366243
0.0194854
0.365641
0.0189662
0.365053
0.0184323
0.364483
0.0178809
0.36393
0.0173109
0.363395
0.0167183
0.362872
0.016101
0.362354
0.0154642
0.361837
0.0147923
0.361304
0.0141046
0.36079
0.0133954
0.360361
0.0125784
0.360013
0.0117624
0.360079
0.0109628
0.360877
0.0102201
0.363115
0.00938694
0.368089
0.00848033
0.37782
0.00754238
0.395228
0.00658263
0.424182
0.00559756
0.469153
0.00458977
0.533606
0.00357065
0.615937
0.00256625
0.704503
0.00166322
0.777079
0.000905587
0.820043
0.0003961
0.835397
0.000116522
0.836026
4.74141e-06
0.834152
-5.71619e-06
0.831715
-1.28459e-05
0.82901
-1.40663e-05
0.826236
-1.29361e-05
0.823647
-1.07067e-05
0.821238
-9.37644e-06
0.818994
-8.56546e-06
0.816969
-8.04271e-06
0.815121
-7.72251e-06
0.813356
-7.47624e-06
0.811595
-7.23684e-06
0.809799
-7.00036e-06
0.807974
-6.78095e-06
0.806145
-6.58749e-06
0.804341
-6.42122e-06
0.802581
-6.27962e-06
0.800873
-6.15797e-06
0.799211
-6.05531e-06
0.79758
-5.96971e-06
0.795963
-5.8926e-06
0.794353
-5.82517e-06
0.79276
-5.76565e-06
0.791195
-5.71204e-06
0.789665
-5.66e-06
0.788164
-5.61495e-06
0.786685
-5.57234e-06
0.785233
-5.52967e-06
-5.49261e-06
0.0166887
0.103682
0.034616
0.10225
0.0520849
0.103268
0.0691489
0.103719
0.0862134
0.103381
0.10316
0.10316
0.119827
0.103147
0.136035
0.103097
0.151991
0.103089
0.167841
0.103405
0.183527
0.103741
0.198944
0.104071
0.213984
0.104329
0.228602
0.10449
0.242808
0.104605
0.256576
0.104819
0.269828
0.104962
0.282451
0.104951
0.294318
0.104957
0.305292
0.104915
0.315198
0.104843
0.323894
0.104599
0.331246
0.104338
0.337475
0.104009
0.342766
0.103535
0.347124
0.103135
0.35066
0.102723
0.353627
0.102214
0.356336
0.101738
0.359023
0.101368
0.361881
0.101188
0.365028
0.101214
0.368526
0.101319
0.372281
0.101538
0.376051
0.101613
0.379468
0.101451
0.382245
0.101113
0.384565
0.100397
0.386739
0.0998644
0.389001
0.0993117
0.391283
0.0991394
0.393559
0.0990955
0.395832
0.0993827
0.398285
0.0997874
0.401168
0.100259
0.404912
0.101294
0.40991
0.102108
0.416298
0.103202
0.424446
0.104492
0.434844
0.10618
0.448057
0.107816
0.46473
0.110066
0.485423
0.112109
0.510512
0.114668
0.54051
0.11706
0.575833
0.120063
0.617021
0.123162
0.664629
0.126266
0.719133
0.12997
0.781155
0.133955
0.851207
0.138269
0.930512
0.143002
1.02038
0.148947
1.1224
0.155757
1.23936
0.16352
1.37408
0.172453
1.53168
0.182904
1.72125
0.195826
1.96162
0.213073
2.3028
0.238634
2.54238
0.273269
2.54361
0.245514
0.790109
0.120104
0.406341
0.0499444
0.401098
0.0458408
0.399998
0.0452494
0.398533
0.0446897
0.396719
0.0440495
0.394981
0.0433513
0.393335
0.042609
0.39174
0.0418439
0.390202
0.0410969
0.388745
0.0403905
0.387365
0.0397092
0.386047
0.0390417
0.384782
0.0383838
0.383568
0.0377369
0.382402
0.0371009
0.381283
0.0364747
0.380205
0.0358596
0.379168
0.0352537
0.378168
0.0346574
0.377202
0.0340708
0.376268
0.0334935
0.375365
0.0329247
0.37449
0.0323646
0.373642
0.031813
0.37282
0.0312685
0.372022
0.0307309
0.371247
0.0301994
0.370493
0.029673
0.369759
0.0291498
0.369045
0.0286286
0.368348
0.0281081
0.367669
0.0275861
0.367005
0.0270603
0.366357
0.0265283
0.365724
0.025988
0.365104
0.025437
0.364499
0.0248725
0.363906
0.0242918
0.363328
0.0236928
0.362764
0.0230732
0.362218
0.0224296
0.36169
0.0217615
0.36118
0.0210642
0.360683
0.0203352
0.360191
0.0195826
0.359702
0.0187871
0.359198
0.0179733
0.358716
0.0171273
0.358311
0.0161737
0.358001
0.0152214
0.358093
0.0142712
0.358929
0.0133723
0.361211
0.0124036
0.366223
0.011345
0.375988
0.0102367
0.393425
0.00909253
0.422406
0.0079082
0.467406
0.00668267
0.531909
0.00541993
0.614353
0.0041392
0.703167
0.00292777
0.776145
0.00179473
0.819512
0.000971751
0.835268
0.000373163
0.835963
7.11447e-05
0.834128
3.46645e-05
0.831714
-1.31047e-06
0.829014
-1.29298e-05
0.826239
-1.47256e-05
0.823648
-1.28601e-05
0.821239
-1.05563e-05
0.818994
-9.17216e-06
0.816969
-8.35947e-06
0.815121
-7.90081e-06
0.813356
-7.60898e-06
0.811595
-7.37147e-06
0.809799
-7.13908e-06
0.807974
-6.9102e-06
0.806145
-6.69734e-06
0.804341
-6.50743e-06
0.802581
-6.34175e-06
0.800873
-6.19959e-06
0.799211
-6.08046e-06
0.79758
-5.97547e-06
0.795963
-5.8909e-06
0.794353
-5.81796e-06
0.79276
-5.74768e-06
0.791195
-5.68701e-06
0.789665
-5.63064e-06
0.788164
-5.58037e-06
0.786685
-5.53281e-06
0.785233
-5.48874e-06
-5.45006e-06
0.0164751
0.121118
0.0334065
0.119829
0.0510212
0.119194
0.0685619
0.11985
0.0860611
0.119799
0.103147
0.119827
0.119858
0.119858
0.136179
0.119888
0.152257
0.119919
0.16818
0.120186
0.183869
0.120453
0.199247
0.120725
0.214277
0.120985
0.228934
0.121221
0.243184
0.12142
0.256983
0.121683
0.270256
0.121858
0.282904
0.121889
0.294803
0.121931
0.305816
0.121891
0.315754
0.121847
0.324471
0.121634
0.331839
0.121422
0.338067
0.121172
0.343362
0.120748
0.347736
0.120372
0.351295
0.11999
0.354322
0.119494
0.357141
0.119074
0.35999
0.118771
0.363041
0.118661
0.366372
0.118763
0.369985
0.118854
0.373686
0.118939
0.377182
0.118688
0.380206
0.118085
0.382701
0.117372
0.385035
0.116442
0.387409
0.115886
0.38987
0.115409
0.392291
0.115381
0.394631
0.115414
0.3969
0.115778
0.399314
0.116249
0.40218
0.116832
0.405928
0.117958
0.410911
0.118862
0.417285
0.120214
0.425467
0.121694
0.435868
0.123597
0.44906
0.125431
0.465687
0.127825
0.486304
0.130029
0.511307
0.132901
0.541241
0.135585
0.576545
0.138962
0.617748
0.142441
0.665363
0.145975
0.719933
0.150137
0.782081
0.154581
0.852444
0.159536
0.932278
0.164883
1.02285
0.171681
1.1259
0.179439
1.24403
0.18793
1.38014
0.198452
1.53999
0.210923
1.73356
0.22624
1.98182
0.247902
2.33361
0.279116
2.54064
0.319136
2.42175
0.277631
0.673369
0.121393
0.401591
0.0563062
0.397984
0.0529354
0.396905
0.0521887
0.395315
0.051441
0.393436
0.0506148
0.391658
0.0497731
0.389995
0.0489482
0.388418
0.0481518
0.386922
0.047389
0.385503
0.0466501
0.38415
0.0459262
0.382855
0.0452163
0.381615
0.0445192
0.380427
0.0438361
0.379287
0.0431659
0.378193
0.0425073
0.377142
0.0418614
0.37613
0.0412261
0.375156
0.040602
0.374216
0.0399885
0.373308
0.0393853
0.37243
0.0387912
0.371581
0.0382061
0.370759
0.0376296
0.369962
0.0370597
0.369189
0.0364957
0.368438
0.0359366
0.367709
0.0353805
0.366999
0.0348252
0.366309
0.034269
0.365635
0.0337098
0.364979
0.033145
0.364337
0.0325717
0.363711
0.0319872
0.363099
0.0313889
0.362501
0.0307739
0.361916
0.0301394
0.361345
0.0294824
0.360787
0.0288007
0.360244
0.0280924
0.359718
0.0273533
0.359211
0.0265841
0.358723
0.0257796
0.358248
0.0249373
0.357777
0.0240672
0.357311
0.0231495
0.356834
0.0222107
0.356379
0.0212242
0.355994
0.0201428
0.355716
0.0190554
0.355829
0.0179539
0.356696
0.0168959
0.359013
0.0157946
0.364054
0.0145939
0.373841
0.0133272
0.391293
0.0120096
0.420279
0.0106354
0.465277
0.00919935
0.529785
0.00769618
0.612284
0.00614158
0.701288
0.00461376
0.77466
0.00306688
0.818477
0.00193123
0.834933
0.000875801
0.835777
0.000237869
0.83404
0.000149747
0.831692
4.46448e-05
0.829019
-5.91198e-07
0.826246
-1.38132e-05
0.823652
-1.54642e-05
0.821241
-1.29502e-05
0.818995
-1.04383e-05
0.816969
-8.98117e-06
0.815121
-8.19788e-06
0.813356
-7.76844e-06
0.811595
-7.48783e-06
0.809799
-7.25312e-06
0.807974
-7.02183e-06
0.806145
-6.79826e-06
0.804341
-6.59154e-06
0.802581
-6.40887e-06
0.800873
-6.25141e-06
0.799211
-6.11661e-06
0.79758
-6.00061e-06
0.795963
-5.90299e-06
0.794353
-5.81816e-06
0.79276
-5.74193e-06
0.791195
-5.67429e-06
0.789665
-5.61263e-06
0.788164
-5.55713e-06
0.786685
-5.50526e-06
0.785233
-5.45871e-06
-5.41746e-06
0.0164464
0.138428
0.0311569
0.138271
0.0496502
0.134236
0.068079
0.13529
0.085903
0.13574
0.103097
0.136035
0.119888
0.136179
0.136359
0.136359
0.15255
0.136481
0.168514
0.136719
0.184203
0.136938
0.19959
0.137199
0.214658
0.137494
0.22936
0.1378
0.243636
0.138066
0.25745
0.138361
0.270739
0.138577
0.283417
0.138664
0.295354
0.138769
0.306413
0.138758
0.316395
0.138775
0.325147
0.138623
0.332543
0.138456
0.338791
0.13828
0.344103
0.137924
0.348494
0.137591
0.352095
0.137292
0.355212
0.136884
0.358173
0.136566
0.361207
0.13633
0.364436
0.136237
0.367876
0.136285
0.371454
0.136143
0.374913
0.135884
0.378026
0.135197
0.380758
0.134184
0.383186
0.133263
0.385671
0.132282
0.388329
0.131809
0.390983
0.131491
0.393502
0.131628
0.395861
0.131732
0.398095
0.132178
0.400477
0.13273
0.403355
0.133418
0.407118
0.134653
0.412092
0.135668
0.418454
0.137238
0.42666
0.138817
0.437043
0.140905
0.450206
0.142896
0.466769
0.145406
0.487308
0.147727
0.512234
0.150834
0.542121
0.153708
0.577408
0.157354
0.618643
0.161112
0.666297
0.165026
0.720958
0.169609
0.783228
0.174501
0.853912
0.180096
0.934164
0.186189
1.02527
0.193848
1.12929
0.202202
1.24867
0.211777
1.38707
0.224091
1.55076
0.238064
1.75038
0.256934
2.00877
0.282819
2.37367
0.321752
2.57149
0.363363
2.21209
0.300881
0.573023
0.117995
0.397083
0.0623367
0.394466
0.0596779
0.393371
0.0588378
0.39169
0.0579893
0.389809
0.057096
0.388062
0.0562231
0.38644
0.0553874
0.384908
0.0545812
0.383454
0.0537987
0.382069
0.053033
0.380747
0.0522836
0.379483
0.0515504
0.378275
0.050832
0.377117
0.0501287
0.376008
0.0494392
0.374944
0.0487622
0.373922
0.0480985
0.372939
0.0474461
0.371993
0.0468052
0.37108
0.0461749
0.3702
0.0455549
0.369349
0.0449437
0.368526
0.0443409
0.36773
0.0437453
0.366958
0.0431549
0.366209
0.0425686
0.365482
0.0419845
0.364776
0.0414004
0.364088
0.0408136
0.363419
0.0402219
0.362766
0.0396226
0.362129
0.0390128
0.361506
0.0383891
0.360898
0.0377485
0.360304
0.0370883
0.359722
0.0364052
0.359154
0.0356965
0.358598
0.0349592
0.358055
0.0341912
0.357528
0.0333909
0.357018
0.032554
0.356526
0.0316825
0.356054
0.0307699
0.355594
0.0298157
0.35514
0.0288288
0.35469
0.0277933
0.354233
0.0267323
0.353798
0.0256097
0.353428
0.0244082
0.353177
0.0231876
0.353306
0.0219418
0.354195
0.0207304
0.356537
0.0195047
0.361597
0.0181754
0.371396
0.0167644
0.388848
0.0152872
0.417816
0.0137379
0.462775
0.012108
0.527234
0.0103819
0.609709
0.00857656
0.698826
0.00673307
0.772541
0.00475171
0.816778
0.00333576
0.83423
0.00172784
0.835356
0.000564217
0.833812
0.000395572
0.831607
0.000165709
0.829008
4.73084e-05
0.826256
-2.19048e-06
0.82366
-1.46492e-05
0.821245
-1.66663e-05
0.818997
-1.32779e-05
0.81697
-1.04253e-05
0.815121
-8.77259e-06
0.813357
-7.98549e-06
0.811595
-7.5809e-06
0.8098
-7.30815e-06
0.807974
-7.0786e-06
0.806146
-6.86471e-06
0.804341
-6.65601e-06
0.802581
-6.46319e-06
0.800873
-6.29342e-06
0.799211
-6.14669e-06
0.79758
-6.02111e-06
0.795963
-5.91336e-06
0.794353
-5.81984e-06
0.79276
-5.73724e-06
0.791195
-5.66381e-06
0.789665
-5.59731e-06
0.788164
-5.53746e-06
0.786685
-5.48181e-06
0.785233
-5.43239e-06
-5.38835e-06
0.0190259
0.152912
0.0340753
0.15663
0.0510609
0.150857
0.0686212
0.151307
0.0859816
0.151672
0.103089
0.151991
0.119919
0.152257
0.136481
0.15255
0.15275
0.15275
0.168773
0.152992
0.184526
0.153235
0.199988
0.153539
0.215123
0.153883
0.229868
0.15424
0.244167
0.154557
0.258003
0.154885
0.271319
0.155158
0.284044
0.155311
0.296035
0.155504
0.307154
0.155553
0.317195
0.155659
0.325992
0.15559
0.333432
0.155458
0.339724
0.155347
0.345073
0.15507
0.3495
0.154792
0.35317
0.154597
0.356391
0.154293
0.359481
0.154058
0.362644
0.153814
0.365952
0.153602
0.369352
0.153422
0.372737
0.152877
0.375894
0.15219
0.378748
0.151156
0.381437
0.14992
0.38402
0.149016
0.386764
0.148123
0.389732
0.147759
0.392556
0.147631
0.39512
0.147931
0.397443
0.148086
0.39961
0.148623
0.401958
0.149276
0.404859
0.150067
0.408636
0.15143
0.413604
0.152546
0.419939
0.154288
0.428108
0.155905
0.438405
0.158146
0.451499
0.160229
0.467964
0.162817
0.488408
0.165192
0.513228
0.168463
0.543023
0.171434
0.578221
0.175272
0.619422
0.179212
0.667071
0.183451
0.721747
0.188452
0.784177
0.193709
0.855159
0.199986
0.935806
0.206942
1.0279
0.215131
1.13313
0.22434
1.25418
0.23558
1.39572
0.249197
1.56312
0.265898
1.77022
0.287888
2.04113
0.318053
2.41538
0.366552
2.6044
0.407451
1.94062
0.312301
0.495809
0.112048
0.392771
0.0683959
0.390727
0.0663453
0.389611
0.0654858
0.387889
0.0646032
0.38605
0.0636972
0.384359
0.0628205
0.382786
0.0619776
0.381297
0.0611575
0.37988
0.0603577
0.378531
0.0595756
0.377243
0.0588112
0.376014
0.0580641
0.374839
0.0573323
0.373713
0.0566161
0.372635
0.0559137
0.371601
0.0552243
0.370608
0.0545481
0.369653
0.053883
0.368735
0.0532293
0.367849
0.0525858
0.366995
0.0519518
0.366169
0.0513256
0.36537
0.0507064
0.364597
0.0500926
0.363847
0.0494818
0.36312
0.0488724
0.362413
0.0482619
0.361726
0.0476478
0.361057
0.0470269
0.360404
0.0463964
0.359768
0.0457534
0.359145
0.0450945
0.358537
0.0444162
0.357942
0.0437154
0.35736
0.0429892
0.35679
0.0422342
0.356232
0.0414482
0.355687
0.0406279
0.355154
0.0397719
0.354637
0.0388788
0.354136
0.0379444
0.353654
0.0369719
0.353192
0.0359536
0.352744
0.0348918
0.352301
0.0337918
0.35186
0.0326453
0.35142
0.0314664
0.350997
0.0302196
0.350637
0.0289065
0.350405
0.0275588
0.350543
0.0261795
0.351447
0.0248242
0.353808
0.0234839
0.358883
0.0220411
0.368685
0.0205028
0.386124
0.0188834
0.415053
0.0171772
0.459939
0.0153726
0.524291
0.0134453
0.606649
0.0114228
0.69577
0.00927235
0.769748
0.00686729
0.814301
0.00520904
0.832945
0.00304218
0.834559
0.00110756
0.833347
0.000841718
0.831387
0.000419459
0.828937
0.00017355
0.82625
4.44882e-05
0.82367
-5.23853e-06
0.821253
-1.60138e-05
0.819002
-1.73848e-05
0.816973
-1.37134e-05
0.815122
-1.03468e-05
0.813357
-8.5528e-06
0.811595
-7.74279e-06
0.8098
-7.34027e-06
0.807975
-7.06999e-06
0.806146
-6.86617e-06
0.804341
-6.67633e-06
0.802581
-6.49595e-06
0.800873
-6.32294e-06
0.799212
-6.16887e-06
0.79758
-6.03436e-06
0.795963
-5.91737e-06
0.794353
-5.81558e-06
0.79276
-5.72575e-06
0.791195
-5.64592e-06
0.789665
-5.5743e-06
0.788164
-5.51005e-06
0.786685
-5.45088e-06
0.785233
-5.39843e-06
-5.35106e-06
0.0193739
0.166561
0.0351779
0.174281
0.0520431
0.167452
0.0693046
0.167242
0.0864046
0.167539
0.103405
0.167841
0.120186
0.16818
0.136719
0.168514
0.152992
0.168773
0.169058
0.169058
0.184891
0.169371
0.200442
0.169741
0.215646
0.170133
0.230437
0.170536
0.244773
0.170908
0.25865
0.171283
0.272013
0.171636
0.284803
0.171865
0.296866
0.172168
0.308055
0.172304
0.318158
0.172517
0.326992
0.172546
0.334484
0.172449
0.340844
0.172391
0.34624
0.172194
0.350714
0.171962
0.354467
0.171828
0.357781
0.171569
0.360952
0.171337
0.364144
0.170979
0.367393
0.170513
0.370607
0.170005
0.373734
0.169037
0.3767
0.168009
0.379521
0.166838
0.382366
0.165596
0.385247
0.164867
0.388285
0.164143
0.39146
0.163876
0.394401
0.163873
0.396953