/*--------------------------------*- C++ -*----------------------------------*\
  =========                 |
  \\      /  F ield         | OpenFOAM: The Open Source CFD Toolbox
   \\    /   O peration     | Website:  https://openfoam.org
    \\  /    A nd           | Version:  13
     \\/     M anipulation  |
\*---------------------------------------------------------------------------*/
FoamFile
{
    format      ascii;
    class       volScalarField;
    location    "0.0016";
    object      Qdot;
}
// * * * * * * * * * * * * * * * * * * * * * * * * * * * * * * * * * * * * * //

dimensions      [1 -1 -3 0 0 0 0];

internalField   nonuniform List<scalar> 
33334
(
-8.07865e-18
-8.34936e-18
-9.42671e-18
-1.22076e-17
-1.81932e-17
-3.05019e-17
-5.64148e-17
-1.15337e-16
-2.5958e-16
-6.48625e-16
-1.77625e-15
-5.26224e-15
-1.65765e-14
-5.464e-14
-1.85935e-13
-6.45265e-13
-2.2578e-12
-7.88966e-12
-2.73183e-11
-9.31732e-11
-3.11768e-10
-1.02121e-09
-3.27087e-09
-1.02426e-08
-3.13866e-08
-9.42022e-08
-2.76817e-07
-7.9367e-07
-2.2065e-06
-5.89974e-06
0.000231635
0.000210042
0.000866508
0.00196352
0.00415953
0.00794424
0.0147523
0.0266378
0.0457805
0.0759162
0.121709
0.189292
0.28726
0.426105
0.620623
0.887595
1.24637
1.71458
2.30151
3.0014
3.80734
4.74121
5.88333
7.39792
9.57147
12.9251
18.5161
28.6614
48.8096
92.8545
200.41
497.114
1432.67
4902.27
20482.5
106562
709528
6.35853e+06
8.09296e+07
1.63922e+09
5.4975e+10
2.99342e+11
2.7461e+09
4.02579e+07
2.85563e+07
2.75895e+07
2.67064e+07
2.58097e+07
2.49451e+07
2.41125e+07
2.32942e+07
2.24603e+07
2.15662e+07
2.073e+07
2.01276e+07
1.95828e+07
1.9061e+07
1.85634e+07
1.8092e+07
1.76449e+07
1.72198e+07
1.6815e+07
1.6429e+07
1.60606e+07
1.57085e+07
1.53716e+07
1.50489e+07
1.47396e+07
1.44426e+07
1.41574e+07
1.38831e+07
1.36191e+07
1.33649e+07
1.312e+07
1.28838e+07
1.26559e+07
1.24358e+07
1.22233e+07
1.20179e+07
1.18195e+07
1.16277e+07
1.14423e+07
1.12624e+07
1.10872e+07
1.09159e+07
1.07485e+07
1.05863e+07
1.0432e+07
1.0289e+07
1.01587e+07
1.00368e+07
9.90984e+06
9.75179e+06
9.52717e+06
9.11312e+06
8.36049e+06
7.06909e+06
5.1687e+06
2.96792e+06
1.16908e+06
265355
28813.7
1362.15
34.9955
0.984631
0.0730194
0.020803
0.0134562
0.0122769
0.012013
0.0120293
0.0121195
0.012204
0.0121897
0.0121085
0.0119503
0.0118292
0.011607
0.0112732
0.0110945
0.0108988
0.0107929
0.0106433
0.0104962
0.0103451
0.0101892
0.0100325
0.00988153
0.00979996
0.00961268
0.00955125
0.00943562
0.00932248
0.00927028
0.00916086
0.00904917
-8.34936e-18
-8.63202e-18
-9.74659e-18
-1.26258e-17
-1.88209e-17
-3.15664e-17
-5.86334e-17
-1.19589e-16
-2.68322e-16
-6.65352e-16
-1.81093e-15
-5.33178e-15
-1.67154e-14
-5.49246e-14
-1.86348e-13
-6.44443e-13
-2.24775e-12
-7.83434e-12
-2.70676e-11
-9.21294e-11
-3.07673e-10
-1.0059e-09
-3.21633e-09
-1.00574e-08
-3.07803e-08
-9.23035e-08
-2.71115e-07
-7.7732e-07
-2.16209e-06
-5.78619e-06
0.000126196
0.000210766
0.000868257
0.00196711
0.00406084
0.00795576
0.0145593
0.026311
0.045313
0.0753365
0.120937
0.187972
0.285403
0.423971
0.61786
0.883988
1.24203
1.70981
2.29658
2.99637
3.80239
4.73169
5.86526
7.36231
9.50491
12.7982
18.2651
28.139
47.629
89.9566
192.594
473.745
1354.17
4601.36
19137.2
99247.2
661370
5.98255e+06
7.71946e+07
1.58374e+09
5.30701e+10
3.0796e+11
3.02976e+09
4.05773e+07
2.78963e+07
2.68507e+07
2.58872e+07
2.48955e+07
2.39428e+07
2.30461e+07
2.22183e+07
2.15092e+07
2.09986e+07
2.05672e+07
2.00166e+07
1.94629e+07
1.89471e+07
1.84621e+07
1.8001e+07
1.75617e+07
1.71431e+07
1.67438e+07
1.63625e+07
1.59981e+07
1.56495e+07
1.53157e+07
1.49957e+07
1.46886e+07
1.43936e+07
1.411e+07
1.38372e+07
1.35745e+07
1.33215e+07
1.30775e+07
1.28421e+07
1.2615e+07
1.23956e+07
1.21837e+07
1.1979e+07
1.17812e+07
1.15901e+07
1.14053e+07
1.12262e+07
1.1052e+07
1.08816e+07
1.07153e+07
1.05542e+07
1.04012e+07
1.02595e+07
1.01305e+07
1.001e+07
9.88509e+06
9.72855e+06
9.50454e+06
9.09513e+06
8.34618e+06
7.05922e+06
5.1632e+06
2.9659e+06
1.16878e+06
265414
28833.5
1363.81
35.0447
0.985669
0.073061
0.0208043
0.0134567
0.0122761
0.0120119
0.0120281
0.0121182
0.0122028
0.0121885
0.0121074
0.0119492
0.0118282
0.011606
0.0112723
0.0110936
0.0108979
0.0107921
0.0106424
0.0104954
0.0103443
0.0101884
0.0100317
0.00988078
0.00979923
0.00961198
0.00955058
0.00943497
0.00932186
0.00926968
0.00916028
0.00904861
-9.42671e-18
-9.74659e-18
-1.0999e-17
-1.4236e-17
-2.1195e-17
-3.55322e-17
-6.58674e-17
-1.34267e-16
-3.02066e-16
-7.46348e-16
-2.01685e-15
-5.89329e-15
-1.83463e-14
-5.98895e-14
-2.01906e-13
-6.94023e-13
-2.40714e-12
-8.3446e-12
-2.86794e-11
-9.71358e-11
-3.22961e-10
-1.05188e-09
-3.35277e-09
-1.04568e-08
-3.19441e-08
-9.56772e-08
-2.80782e-07
-8.04674e-07
-2.23798e-06
-5.98923e-06
0.000231523
0.000209513
0.000970929
0.0019607
0.00411865
0.00828385
0.0152197
0.0273918
0.0476932
0.0792424
0.127341
0.1987
0.302112
0.449557
0.65638
0.940803
1.3235
1.82198
2.44456
3.18349
4.0295
4.99912
6.1752
7.72309
9.93332
13.3236
18.9391
29.0569
48.989
92.2481
197.148
484.81
1387.52
4726.04
19766.7
103776
704540
6.501e+06
8.65954e+07
1.80344e+09
5.94777e+10
2.82763e+11
2.39014e+09
3.77942e+07
2.71282e+07
2.61266e+07
2.52028e+07
2.42753e+07
2.34186e+07
2.2656e+07
2.19885e+07
2.13997e+07
2.08467e+07
2.02782e+07
1.97078e+07
1.91658e+07
1.86561e+07
1.81737e+07
1.77153e+07
1.7279e+07
1.68635e+07
1.64673e+07
1.60892e+07
1.5728e+07
1.53825e+07
1.50518e+07
1.47349e+07
1.4431e+07
1.41391e+07
1.38587e+07
1.3589e+07
1.33294e+07
1.30796e+07
1.28389e+07
1.26069e+07
1.23832e+07
1.21674e+07
1.19593e+07
1.17585e+07
1.15649e+07
1.13782e+07
1.11981e+07
1.10239e+07
1.08549e+07
1.06902e+07
1.05297e+07
1.03749e+07
1.02284e+07
1.00933e+07
9.97096e+06
9.85737e+06
9.74048e+06
9.5921e+06
9.3775e+06
8.98215e+06
8.25037e+06
6.98598e+06
5.11582e+06
2.94252e+06
1.16118e+06
264107
28744.6
1362.3
35.0689
0.987291
0.0731579
0.0208134
0.0134566
0.0122746
0.0120101
0.0120262
0.0121163
0.0122009
0.0121868
0.0121057
0.0119476
0.0118267
0.0116046
0.0112709
0.0110923
0.0108966
0.0107908
0.0106412
0.0104942
0.0103432
0.0101873
0.0100307
0.00987979
0.00979828
0.00961106
0.0095497
0.00943413
0.00932105
0.00926891
0.00915956
0.00904794
-1.22076e-17
-1.26258e-17
-1.4236e-17
-1.84034e-17
-2.73446e-17
-4.57183e-17
-8.44963e-17
-1.7187e-16
-3.84739e-16
-9.44521e-16
-2.53177e-15
-7.33336e-15
-2.2622e-14
-7.31537e-14
-2.44403e-13
-8.33101e-13
-2.86554e-12
-9.84868e-12
-3.35542e-11
-1.12697e-10
-3.71923e-10
-1.20406e-09
-3.82078e-09
-1.18818e-08
-3.62404e-08
-1.08477e-07
-3.18323e-07
-9.12375e-07
-2.53767e-06
-6.78939e-06
0.000229702
0.000451554
0.000960498
0.00225476
0.00456353
0.00924324
0.0174234
0.031817
0.0552311
0.0927275
0.149451
0.234767
0.359015
0.537463
0.788328
1.13386
1.59813
2.20099
2.94805
3.8246
4.81281
5.93032
7.27153
9.02829
11.5306
15.3654
21.713
33.1389
55.6313
104.507
223.184
548.881
1574.08
5372.15
22508.5
118903
813289
7.53654e+06
1.01393e+08
2.14436e+09
7.06048e+10
2.56964e+11
1.70757e+09
3.45283e+07
2.61956e+07
2.527e+07
2.44126e+07
2.35712e+07
2.28035e+07
2.2113e+07
2.14766e+07
2.08645e+07
2.02556e+07
1.96658e+07
1.91094e+07
1.85858e+07
1.8091e+07
1.76219e+07
1.71762e+07
1.67524e+07
1.63489e+07
1.59644e+07
1.55975e+07
1.52471e+07
1.49121e+07
1.45916e+07
1.42846e+07
1.39903e+07
1.37079e+07
1.34367e+07
1.31761e+07
1.29255e+07
1.26846e+07
1.24528e+07
1.22296e+07
1.20149e+07
1.18081e+07
1.16091e+07
1.14176e+07
1.12335e+07
1.10565e+07
1.08863e+07
1.07224e+07
1.0564e+07
1.04101e+07
1.0261e+07
1.01177e+07
9.98294e+06
9.85986e+06
9.74967e+06
9.64821e+06
9.54471e+06
9.41025e+06
9.20768e+06
8.83134e+06
8.12227e+06
6.88653e+06
5.04931e+06
2.90787e+06
1.14908e+06
261788
28553.2
1356.54
34.9979
0.986707
0.0731612
0.0208159
0.0134561
0.0122732
0.0120086
0.0120247
0.0121148
0.0121994
0.0121853
0.0121043
0.0119463
0.0118255
0.0116035
0.0112699
0.0110912
0.0108956
0.0107899
0.0106403
0.0104934
0.0103424
0.0101865
0.01003
0.00987913
0.00979766
0.00961048
0.00954916
0.00943363
0.0093206
0.0092685
0.00915918
0.0090476
-1.81932e-17
-1.88209e-17
-2.1195e-17
-2.73446e-17
-4.0491e-17
-6.73602e-17
-1.23779e-16
-2.50174e-16
-5.55769e-16
-1.35368e-15
-3.59655e-15
-1.03154e-14
-3.14822e-14
-1.00696e-13
-3.32909e-13
-1.12378e-12
-3.83032e-12
-1.30494e-11
-4.40763e-11
-1.46797e-10
-4.80674e-10
-1.54545e-09
-4.87614e-09
-1.50953e-08
-4.58786e-08
-1.36943e-07
-4.00931e-07
-1.14692e-06
-3.18458e-06
9.76914e-05
8.43628e-05
0.00054754
0.00143122
0.00269795
0.00600795
0.0118813
0.0223535
0.040876
0.0716315
0.120993
0.19721
0.311594
0.480046
0.722569
1.0643
1.53402
2.16359
2.97647
3.97484
5.13067
6.41532
7.84894
9.55357
11.7739
14.9285
19.7531
27.7257
42.0469
70.1713
131.173
278.935
682.795
1950.58
6651.34
27864.2
147603
1.01941e+06
9.50476e+06
1.28591e+08
2.7855e+09
8.89243e+10
2.16103e+11
1.04951e+09
3.13042e+07
2.52233e+07
2.43816e+07
2.35819e+07
2.27938e+07
2.20574e+07
2.13676e+07
2.07082e+07
2.00717e+07
1.9464e+07
1.88945e+07
1.83601e+07
1.78562e+07
1.73793e+07
1.69274e+07
1.64986e+07
1.60911e+07
1.57033e+07
1.5334e+07
1.49819e+07
1.46459e+07
1.43249e+07
1.4018e+07
1.37242e+07
1.34429e+07
1.31731e+07
1.29144e+07
1.26661e+07
1.24276e+07
1.21986e+07
1.19787e+07
1.17674e+07
1.15645e+07
1.13696e+07
1.11826e+07
1.10032e+07
1.08312e+07
1.06666e+07
1.0509e+07
1.03579e+07
1.02125e+07
1.0072e+07
9.93633e+06
9.80691e+06
9.68595e+06
9.57682e+06
9.48063e+06
9.39297e+06
9.3044e+06
9.18579e+06
8.99704e+06
8.64116e+06
7.9582e+06
6.75667e+06
4.96037e+06
2.85984e+06
1.13124e+06
258004
28183.5
1342.21
34.7402
0.982546
0.0729978
0.0207991
0.013454
0.0122717
0.0120077
0.012024
0.0121141
0.0121987
0.0121846
0.0121036
0.0119456
0.0118249
0.0116029
0.0112694
0.0110907
0.0108952
0.0107894
0.0106399
0.010493
0.010342
0.0101862
0.0100297
0.00987886
0.00979742
0.00961026
0.00954896
0.00943346
0.00932044
0.00926836
0.00915906
0.0090475
-3.05019e-17
-3.15664e-17
-3.55322e-17
-4.57183e-17
-6.73602e-17
-1.11279e-16
-2.02738e-16
-4.05534e-16
-8.91039e-16
-2.14708e-15
-5.64169e-15
-1.59912e-14
-4.82096e-14
-1.52332e-13
-4.97703e-13
-1.66111e-12
-5.60183e-12
-1.89e-11
-6.3274e-11
-2.09015e-10
-6.79141e-10
-2.16779e-09
-6.79378e-09
-2.09031e-08
-6.31797e-08
-1.8767e-07
-5.47132e-07
-1.55979e-06
-4.32008e-06
-1.15252e-05
0.000324658
0.000742174
0.00170874
0.00380769
0.00832142
0.0162501
0.0311019
0.0572962
0.100917
0.171563
0.281165
0.447005
0.691567
1.04389
1.53933
2.21853
3.12329
4.28347
5.69514
7.31419
9.0959
11.0675
13.3966
16.4124
20.6722
27.1541
37.8153
56.8731
94.1175
174.53
368.313
894.639
2536.98
8618.28
36056.3
190771
1.3168e+06
1.24016e+07
1.69823e+08
3.77614e+09
1.16452e+11
1.67397e+11
5.9185e+08
2.83604e+07
2.41571e+07
2.33699e+07
2.25932e+07
2.18205e+07
2.10886e+07
2.0398e+07
1.97444e+07
1.91284e+07
1.85516e+07
1.80111e+07
1.75025e+07
1.70225e+07
1.65687e+07
1.6139e+07
1.57315e+07
1.53445e+07
1.49765e+07
1.46262e+07
1.42925e+07
1.39742e+07
1.36704e+07
1.33801e+07
1.31025e+07
1.28369e+07
1.25824e+07
1.23386e+07
1.21049e+07
1.18808e+07
1.16659e+07
1.14599e+07
1.12624e+07
1.10733e+07
1.08921e+07
1.07188e+07
1.05531e+07
1.03949e+07
1.02442e+07
1.01005e+07
9.96349e+06
9.83228e+06
9.7061e+06
9.58493e+06
9.47015e+06
9.36377e+06
9.2692e+06
9.18746e+06
9.11387e+06
9.04009e+06
8.93755e+06
8.76306e+06
8.4273e+06
7.77101e+06
6.60533e+06
4.8538e+06
2.80014e+06
1.10796e+06
252730
27619.2
1317.34
34.21
0.972197
0.0726302
0.0207379
0.0134452
0.0122671
0.0120066
0.0120234
0.012114
0.0121986
0.0121844
0.0121033
0.0119454
0.0118246
0.0116027
0.0112692
0.0110906
0.010895
0.0107893
0.0106397
0.0104929
0.0103419
0.0101861
0.0100296
0.00987879
0.00979736
0.00961021
0.00954892
0.00943342
0.00932041
0.00926834
0.00915905
0.00904749
-5.64148e-17
-5.86334e-17
-6.58674e-17
-8.44963e-17
-1.23779e-16
-2.02738e-16
-3.65296e-16
-7.21308e-16
-1.56332e-15
-3.71524e-15
-9.62452e-15
-2.68868e-14
-7.98909e-14
-2.48889e-13
-8.02021e-13
-2.6411e-12
-8.79338e-12
-2.93183e-11
-9.71023e-11
-3.17638e-10
-1.02277e-09
-3.23685e-09
-1.00623e-08
-3.07274e-08
-9.22448e-08
-2.72389e-07
-7.90228e-07
-2.24456e-06
-6.20272e-06
0.000232197
0.000454565
0.000960862
0.00238373
0.00584893
0.0118146
0.0238517
0.0460401
0.084572
0.149758
0.255164
0.420374
0.670526
1.03996
1.57026
2.3129
3.32504
4.66491
6.36885
8.42545
10.7644
13.3207
16.1356
19.4446
23.7035
29.6783
38.7085
53.4726
79.7231
130.767
240.424
503.301
1212.91
3416.76
11580.8
48409.5
256461
1.78775e+06
1.69767e+07
2.38037e+08
5.50252e+09
1.57153e+11
1.15172e+11
3.11955e+08
2.57713e+07
2.29727e+07
2.22187e+07
2.14552e+07
2.07004e+07
1.99903e+07
1.93272e+07
1.87073e+07
1.81279e+07
1.75853e+07
1.70757e+07
1.65958e+07
1.61431e+07
1.57153e+07
1.53105e+07
1.49268e+07
1.45625e+07
1.42163e+07
1.38869e+07
1.35733e+07
1.32742e+07
1.29889e+07
1.27165e+07
1.24561e+07
1.22071e+07
1.19688e+07
1.17407e+07
1.15223e+07
1.13132e+07
1.11131e+07
1.09217e+07
1.07387e+07
1.05638e+07
1.03969e+07
1.02377e+07
1.00862e+07
9.94217e+06
9.80559e+06
9.67615e+06
9.55331e+06
9.4364e+06
9.32458e+06
9.21778e+06
9.11741e+06
9.0253e+06
8.94487e+06
8.87693e+06
8.81669e+06
8.75655e+06
8.66928e+06
8.50914e+06
8.19254e+06
7.56288e+06
6.43418e+06
4.73066e+06
2.72926e+06
1.07939e+06
245994
26864.3
1282.11
33.4012
0.954914
0.0718036
0.020592
0.0134191
0.0122528
0.0120024
0.0120218
0.0121139
0.0121989
0.0121846
0.0121034
0.0119454
0.0118246
0.0116027
0.0112691
0.0110905
0.010895
0.0107893
0.0106397
0.0104929
0.0103419
0.0101861
0.0100296
0.00987878
0.00979735
0.00961021
0.00954892
0.00943342
0.00932041
0.00926834
0.00915905
0.00904749
-1.15337e-16
-1.19589e-16
-1.34267e-16
-1.7187e-16
-2.50174e-16
-4.05534e-16
-7.21308e-16
-1.4036e-15
-2.99369e-15
-6.99508e-15
-1.78067e-14
-4.88749e-14
-1.42721e-13
-4.37136e-13
-1.38554e-12
-4.49045e-12
-1.47245e-11
-4.83951e-11
-1.5817e-10
-5.11122e-10
-1.62735e-09
-5.09696e-09
-1.56929e-08
-4.75055e-08
-1.41531e-07
-4.15251e-07
-1.19858e-06
-3.39245e-06
9.77771e-05
0.000331455
0.000398945
0.0016575
0.00383009
0.00842858
0.018101
0.0364583
0.0699762
0.129921
0.230573
0.39473
0.651664
1.04133
1.61464
2.4349
3.57657
5.12263
7.15443
9.71851
12.788
16.2506
20.013
24.139
28.9729
35.1604
43.785
56.7398
77.8173
115.129
187.379
341.891
710.376
1699.77
4762.16
16108
67372
357801
2.50798e+06
2.42974e+07
3.49934e+08
8.42142e+09
2.13336e+11
6.85663e+10
1.61363e+08
2.35557e+07
2.17039e+07
2.09839e+07
2.02467e+07
1.95286e+07
1.88595e+07
1.82382e+07
1.76589e+07
1.7117e+07
1.66086e+07
1.61309e+07
1.5681e+07
1.52569e+07
1.48562e+07
1.4477e+07
1.41177e+07
1.37767e+07
1.34526e+07
1.31444e+07
1.28508e+07
1.25711e+07
1.23042e+07
1.20495e+07
1.18062e+07
1.15737e+07
1.13514e+07
1.11389e+07
1.09357e+07
1.07415e+07
1.0556e+07
1.0379e+07
1.02103e+07
1.00495e+07
9.8967e+06
9.75155e+06
9.61402e+06
9.48397e+06
9.36132e+06
9.24577e+06
9.13677e+06
9.03373e+06
8.93576e+06
8.84274e+06
8.75605e+06
8.67742e+06
8.61023e+06
8.5551e+06
8.50732e+06
8.45955e+06
8.38619e+06
8.24017e+06
7.9416e+06
7.33807e+06
6.24693e+06
4.59368e+06
2.64878e+06
1.04611e+06
237917
25928.7
1236.77
32.3105
0.929947
0.0704444
0.0203199
0.0133601
0.0122187
0.0119896
0.0120154
0.0121128
0.0121993
0.012185
0.0121037
0.0119455
0.0118246
0.0116027
0.0112691
0.0110905
0.010895
0.0107893
0.0106397
0.0104929
0.0103419
0.0101861
0.0100296
0.00987879
0.00979736
0.00961021
0.00954892
0.00943342
0.00932042
0.00926834
0.00915905
0.0090475
-2.5958e-16
-2.68322e-16
-3.02066e-16
-3.84739e-16
-5.55769e-16
-8.91039e-16
-1.56332e-15
-2.99369e-15
-6.27028e-15
-1.43666e-14
-3.58317e-14
-9.63324e-14
-2.75564e-13
-8.27116e-13
-2.57074e-12
-8.17662e-12
-2.63367e-11
-8.51136e-11
-2.7382e-10
-8.71991e-10
-2.73922e-09
-8.47447e-09
-2.58007e-08
-7.73285e-08
-2.28417e-07
-6.65419e-07
-1.90998e-06
-5.38486e-06
0.00012836
0.000460961
0.000969964
0.00264114
0.00604967
0.0136315
0.0288942
0.0580185
0.112063
0.207671
0.369212
0.632539
1.04441
1.66834
2.58321
3.88477
5.68426
8.10291
11.2599
15.2132
19.9072
25.1586
30.8325
37.0319
44.2746
53.4994
66.2904
85.4128
116.417
171.12
276.698
501.553
1035.03
2459.49
6863.56
23198.1
97026.4
518442
3.68313e+06
3.63594e+07
5.41423e+08
1.36846e+10
2.79276e+11
3.4014e+10
8.67057e+07
2.16778e+07
2.0421e+07
1.97409e+07
1.90425e+07
1.8371e+07
1.7748e+07
1.71695e+07
1.66293e+07
1.61233e+07
1.56485e+07
1.52022e+07
1.47821e+07
1.43859e+07
1.40117e+07
1.36576e+07
1.33219e+07
1.30033e+07
1.27006e+07
1.24126e+07
1.21383e+07
1.1877e+07
1.16279e+07
1.13901e+07
1.11632e+07
1.09465e+07
1.07395e+07
1.0542e+07
1.03534e+07
1.01736e+07
1.00023e+07
9.83937e+06
9.6845e+06
9.53758e+06
9.39845e+06
9.26696e+06
9.14301e+06
9.02648e+06
8.91726e+06
8.81507e+06
8.71932e+06
8.62945e+06
8.54458e+06
8.46454e+06
8.3906e+06
8.32448e+06
8.26944e+06
8.22607e+06
8.18974e+06
8.15303e+06
8.09203e+06
7.95956e+06
7.67795e+06
7.09981e+06
6.0464e+06
4.44509e+06
2.56009e+06
1.00877e+06
228666
24831.9
1182.1
30.9466
0.897534
0.0685197
0.0199389
0.0132496
0.0121516
0.0120198
0.0119974
0.0121067
0.0121989
0.0121855
0.0121043
0.0119459
0.0118248
0.0116027
0.0112691
0.0110905
0.010895
0.0107893
0.0106397
0.0104929
0.0103419
0.0101861
0.0100296
0.0098788
0.00979737
0.00961022
0.00954893
0.00943343
0.00932043
0.00926835
0.00915906
0.0090475
-6.48625e-16
-6.65352e-16
-7.46348e-16
-9.44521e-16
-1.35368e-15
-2.14708e-15
-3.71524e-15
-6.99508e-15
-1.43666e-14
-3.22139e-14
-7.85268e-14
-2.06197e-13
-5.76004e-13
-1.6889e-12
-5.13162e-12
-1.59719e-11
-5.03959e-11
-1.59731e-10
-5.0459e-10
-1.57997e-09
-4.8867e-09
-1.49051e-08
-4.47964e-08
-1.32733e-07
-3.88245e-07
-1.12179e-06
-3.19887e-06
9.9065e-05
0.000191031
0.000651811
0.00173034
0.00441733
0.010257
0.0224835
0.0474656
0.0959884
0.185519
0.34355
0.611447
1.04682
1.72628
2.75194
4.24642
6.3599
9.25999
13.1293
18.142
24.3705
31.704
39.8404
48.5857
58.1102
69.2133
83.2913
102.729
131.684
178.518
260.94
419.559
756.335
1550.79
3662.61
10205.7
34456.4
144366
779987
5.61375e+06
5.67262e+07
8.8568e+08
2.33606e+10
3.26487e+11
1.38605e+10
5.03995e+07
2.00827e+07
1.91747e+07
1.85344e+07
1.78783e+07
1.72536e+07
1.66745e+07
1.61358e+07
1.56324e+07
1.51606e+07
1.47178e+07
1.43016e+07
1.39098e+07
1.35401e+07
1.31909e+07
1.28604e+07
1.2547e+07
1.22496e+07
1.19669e+07
1.16979e+07
1.14419e+07
1.1198e+07
1.09655e+07
1.07438e+07
1.05324e+07
1.03308e+07
1.01385e+07
9.95532e+06
9.78088e+06
9.61498e+06
9.45743e+06
9.30804e+06
9.16666e+06
9.03313e+06
8.90729e+06
8.78899e+06
8.67814e+06
8.5746e+06
8.47822e+06
8.38872e+06
8.30549e+06
8.22799e+06
8.15533e+06
8.08736e+06
8.02514e+06
7.97051e+06
7.92648e+06
7.89377e+06
7.86781e+06
7.84089e+06
7.79075e+06
7.67092e+06
7.40531e+06
6.85156e+06
5.8356e+06
4.28716e+06
2.46462e+06
967996
218408
23595
1119.2
29.333
0.857766
0.066104
0.0193599
0.0130666
0.0120362
0.0119635
0.0119581
0.0120882
0.0121941
0.0121854
0.0121048
0.0119467
0.0118253
0.0116029
0.0112692
0.0110906
0.010895
0.0107893
0.0106397
0.0104929
0.0103419
0.0101861
0.0100296
0.00987881
0.00979738
0.00961023
0.00954894
0.00943344
0.00932043
0.00926836
0.00915907
0.00904751
-1.77625e-15
-1.81093e-15
-2.01685e-15
-2.53177e-15
-3.59655e-15
-5.64169e-15
-9.62452e-15
-1.78067e-14
-3.58317e-14
-7.85268e-14
-1.86748e-13
-4.77828e-13
-1.30008e-12
-3.71359e-12
-1.09999e-11
-3.34098e-11
-1.0299e-10
-3.19326e-10
-9.88183e-10
-3.03574e-09
-9.2259e-09
-2.76908e-08
-8.20084e-08
-2.39835e-07
-6.93647e-07
-1.98528e-06
-5.61726e-06
0.000237154
0.000461784
0.00121759
0.0029782
0.00739478
0.0175727
0.0384771
0.0815118
0.164293
0.31732
0.587298
1.04327
1.78089
2.92697
4.64603
7.13553
10.63
15.3874
21.6862
29.7838
39.7558
51.3952
64.2077
77.9172
92.813
110.151
132.051
162.186
206.948
279.233
406.199
649.977
1166.5
2378.74
5597.67
15592
52638
222252
1.21315e+06
8.86494e+06
9.28222e+07
1.53084e+09
4.15657e+10
3.13541e+11
4.72179e+09
3.23554e+07
1.8702e+07
1.79836e+07
1.73783e+07
1.67635e+07
1.61825e+07
1.5644e+07
1.51425e+07
1.46735e+07
1.42339e+07
1.38213e+07
1.34333e+07
1.30679e+07
1.27231e+07
1.23973e+07
1.20888e+07
1.17963e+07
1.15187e+07
1.12548e+07
1.10038e+07
1.07649e+07
1.05374e+07
1.03207e+07
1.01143e+07
9.91768e+06
9.73049e+06
9.55237e+06
9.38304e+06
9.22226e+06
9.06983e+06
8.92561e+06
8.78942e+06
8.66112e+06
8.54054e+06
8.42754e+06
8.32194e+06
8.22363e+06
8.13244e+06
8.04822e+06
7.97065e+06
7.89914e+06
7.8331e+06
7.7717e+06
7.71479e+06
7.66328e+06
7.61908e+06
7.5849e+06
7.56168e+06
7.54498e+06
7.52664e+06
7.48601e+06
7.37764e+06
7.12698e+06
6.59647e+06
5.61727e+06
4.12202e+06
2.36369e+06
924393
207313
22240.8
1049.41
27.5036
0.811301
0.0633223
0.0185823
0.0128397
0.0119824
0.011929
0.0119457
0.0120468
0.0121775
0.0121816
0.0121043
0.0119475
0.0118263
0.0116035
0.0112694
0.0110906
0.010895
0.0107893
0.0106398
0.0104929
0.0103419
0.0101861
0.0100296
0.00987882
0.00979739
0.00961025
0.00954895
0.00943345
0.00932044
0.00926837
0.00915907
0.00904751
-5.26224e-15
-5.33178e-15
-5.89329e-15
-7.33336e-15
-1.03154e-14
-1.59912e-14
-2.68868e-14
-4.88749e-14
-9.63324e-14
-2.06197e-13
-4.77828e-13
-1.18948e-12
-3.14632e-12
-8.73692e-12
-2.51711e-11
-7.44241e-11
-2.23586e-10
-6.76558e-10
-2.04646e-09
-6.1557e-09
-1.83484e-08
-5.40945e-08
-1.57609e-07
-4.54221e-07
-1.29701e-06
-3.67213e-06
9.8709e-05
0.000333891
0.00100726
0.00235715
0.00542165
0.0132908
0.0310365
0.0681399
0.143782
0.289451
0.557811
1.02941
1.82063
3.09357
5.05794
7.98216
12.1829
18.0312
25.9283
36.2999
49.5242
65.6602
84.32
104.707
126.433
150.014
177.451
212.012
259.439
329.724
443.135
642.125
1023.81
1831.55
3721.03
8745.5
24390.9
82646.4
352269
1.94918e+06
1.45736e+07
1.58973e+08
2.77368e+09
7.57039e+10
2.32196e+11
1.41706e+09
2.3431e+07
1.74617e+07
1.68487e+07
1.62739e+07
1.56984e+07
1.51583e+07
1.46575e+07
1.41908e+07
1.3754e+07
1.33446e+07
1.29602e+07
1.25986e+07
1.22579e+07
1.19364e+07
1.16325e+07
1.13448e+07
1.1072e+07
1.08129e+07
1.05668e+07
1.03327e+07
1.011e+07
9.89813e+06
9.69653e+06
9.50477e+06
9.32242e+06
9.14917e+06
8.98472e+06
8.82883e+06
8.6813e+06
8.54197e+06
8.41068e+06
8.28729e+06
8.17162e+06
8.06352e+06
7.96282e+06
7.86933e+06
7.7829e+06
7.70335e+06
7.63052e+06
7.56403e+06
7.50334e+06
7.44779e+06
7.39667e+06
7.34978e+06
7.30795e+06
7.2731e+06
7.24763e+06
7.23271e+06
7.22407e+06
7.2132e+06
7.18087e+06
7.0827e+06
6.84585e+06
6.33735e+06
5.39391e+06
3.95166e+06
2.25861e+06
878574
195555
20794.6
974.243
25.5021
0.759058
0.0602016
0.0175994
0.0124365
0.0118284
0.0118435
0.0118914
0.0119723
0.0121388
0.0121672
0.0120986
0.0119475
0.0118277
0.0116047
0.0112701
0.0110909
0.0108951
0.0107893
0.0106398
0.0104929
0.0103419
0.0101862
0.0100297
0.00987884
0.0097974
0.00961026
0.00954896
0.00943346
0.00932045
0.00926837
0.00915908
0.00904752
-1.65765e-14
-1.67154e-14
-1.83463e-14
-2.2622e-14
-3.14822e-14
-4.82096e-14
-7.98909e-14
-1.42721e-13
-2.75564e-13
-5.76004e-13
-1.30008e-12
-3.14632e-12
-8.08232e-12
-2.17887e-11
-6.09533e-11
-1.75112e-10
-5.11669e-10
-1.50802e-09
-4.45025e-09
-1.30844e-08
-3.81925e-08
-1.10438e-07
-3.16117e-07
-8.96595e-07
-2.52432e-06
-7.06055e-06
8.97702e-05
0.000564152
0.0017042
0.00417782
0.010013
0.0246922
0.0566148
0.12424
0.260248
0.522166
1.0016
1.8382
3.23132
5.45282
8.85355
13.8699
21.0081
30.8541
44.0382
61.217
82.9314
109.173
139.224
171.8
206.402
243.982
287.748
342.791
418.15
529.67
709.648
1025.47
1631.7
2913.89
5912.57
13899.6
38935.2
132921
572425
3.22899e+06
2.48694e+07
2.84723e+08
5.32564e+09
1.34646e+11
1.32457e+11
3.77553e+08
1.89509e+07
1.63159e+07
1.57661e+07
1.522e+07
1.46824e+07
1.41807e+07
1.37152e+07
1.3281e+07
1.28746e+07
1.24934e+07
1.21354e+07
1.17986e+07
1.14812e+07
1.11816e+07
1.08984e+07
1.06302e+07
1.03759e+07
1.01344e+07
9.90508e+06
9.68711e+06
9.47991e+06
9.28299e+06
9.09588e+06
8.9182e+06
8.74962e+06
8.58985e+06
8.43865e+06
8.2958e+06
8.16112e+06
8.03446e+06
7.91567e+06
7.80459e+06
7.70105e+06
7.60486e+06
7.51583e+06
7.43376e+06
7.35848e+06
7.28976e+06
7.22745e+06
7.17114e+06
7.12032e+06
7.07429e+06
7.03242e+06
6.99447e+06
6.96128e+06
6.93471e+06
6.9169e+06
6.90913e+06
6.90737e+06
6.90291e+06
6.87776e+06
6.78861e+06
6.56436e+06
6.07661e+06
5.16773e+06
3.77788e+06
2.15058e+06
831135
183314
19282.9
895.343
23.3806
0.702178
0.0566265
0.0166556
0.0118532
0.0114807
0.0116368
0.0117934
0.0119151
0.0120667
0.0121325
0.0120801
0.011943
0.0118286
0.0116063
0.0112713
0.0110916
0.0108954
0.0107894
0.0106398
0.0104929
0.0103419
0.0101862
0.0100297
0.00987885
0.00979741
0.00961027
0.00954897
0.00943347
0.00932046
0.00926838
0.00915909
0.00904753
-5.464e-14
-5.49246e-14
-5.98895e-14
-7.31537e-14
-1.00696e-13
-1.52332e-13
-2.48889e-13
-4.37136e-13
-8.27116e-13
-1.6889e-12
-3.71359e-12
-8.73692e-12
-2.17887e-11
-5.69863e-11
-1.54646e-10
-4.31173e-10
-1.22376e-09
-3.50814e-09
-1.00868e-08
-2.89512e-08
-8.26594e-08
-2.34179e-07
-6.5788e-07
-1.83459e-06
-5.08712e-06
0.00013247
0.00021733
0.000988999
0.00306517
0.00772339
0.0192006
0.0462442
0.10549
0.230268
0.480387
0.957669
1.82466
3.32401
5.79573
9.69643
15.605
24.235
36.386
52.9777
74.9975
103.468
139.126
181.763
230.076
282.07
337.179
397.177
467.186
555.204
675.517
853.525
1141.17
1646.59
2618.88
4674.78
9500.1
22388.2
63187.3
218024
951050
5.51742e+06
4.40085e+07
5.32744e+08
1.07984e+10
2.24648e+11
5.45657e+10
1.13058e+08
1.65065e+07
1.52405e+07
1.47336e+07
1.42162e+07
1.37152e+07
1.32496e+07
1.28173e+07
1.24137e+07
1.20357e+07
1.16812e+07
1.1348e+07
1.10346e+07
1.07391e+07
1.04601e+07
1.01964e+07
9.9466e+06
9.70981e+06
9.48511e+06
9.27175e+06
9.06914e+06
8.87676e+06
8.69417e+06
8.521e+06
8.35691e+06
8.20162e+06
8.05489e+06
7.91649e+06
7.78624e+06
7.66396e+06
7.5495e+06
7.44269e+06
7.34337e+06
7.25133e+06
7.1664e+06
7.08832e+06
7.01691e+06
6.95194e+06
6.8932e+06
6.84048e+06
6.79342e+06
6.75151e+06
6.714e+06
6.68037e+06
6.65033e+06
6.62476e+06
6.60543e+06
6.59429e+06
6.59262e+06
6.59663e+06
6.59761e+06
6.57855e+06
6.49737e+06
6.28455e+06
5.81627e+06
4.94064e+06
3.60228e+06
2.04071e+06
782635
170762
17732.7
814.384
21.1933
0.642162
0.0528267
0.0157513
0.0111343
0.0111049
0.0112693
0.0115876
0.0118726
0.0119533
0.012067
0.0120391
0.0119264
0.0118259
0.0116075
0.0112729
0.0110929
0.0108962
0.0107897
0.0106398
0.0104929
0.0103419
0.0101862
0.0100297
0.00987886
0.00979743
0.00961028
0.00954899
0.00943348
0.00932047
0.00926839
0.0091591
0.00904754
-1.85935e-13
-1.86348e-13
-2.01906e-13
-2.44403e-13
-3.32909e-13
-4.97703e-13
-8.02021e-13
-1.38554e-12
-2.57074e-12
-5.13162e-12
-1.09999e-11
-2.51711e-11
-6.09533e-11
-1.54646e-10
-4.06966e-10
-1.10063e-09
-3.03234e-09
-8.44905e-09
-2.36509e-08
-6.62145e-08
-1.84763e-07
-5.12475e-07
-1.41198e-06
-3.86859e-06
9.99915e-05
0.000338836
0.00102188
0.00223984
0.00586244
0.0150467
0.0375245
0.0884741
0.200439
0.434242
0.898599
1.7771
3.35497
6.0517
10.4452
17.2965
27.5561
42.3703
62.9924
90.851
127.483
174.43
232.631
301.465
378.66
461.231
548.67
644.245
756.073
896.832
1089.12
1373.95
1835.21
2647.93
4216.48
7535.46
15377.4
36449
103790
363575
1.61253e+06
9.69802e+06
8.07093e+07
1.04246e+09
2.28714e+10
3.0539e+11
1.57303e+10
4.44942e+07
1.49553e+07
1.42262e+07
1.37506e+07
1.32627e+07
1.27971e+07
1.23654e+07
1.19642e+07
1.15893e+07
1.12381e+07
1.09086e+07
1.05989e+07
1.03073e+07
1.00325e+07
9.77302e+06
9.52766e+06
9.29535e+06
9.07518e+06
8.86635e+06
8.66823e+06
8.48029e+06
8.30209e+06
8.13326e+06
7.97348e+06
7.82248e+06
7.68e+06
7.54582e+06
7.41975e+06
7.3016e+06
7.1912e+06
7.08838e+06
6.99296e+06
6.90475e+06
6.82355e+06
6.74912e+06
6.68122e+06
6.61963e+06
6.56411e+06
6.51445e+06
6.47041e+06
6.43166e+06
6.39768e+06
6.36776e+06
6.34139e+06
6.31828e+06
6.29933e+06
6.28631e+06
6.28093e+06
6.28444e+06
6.2932e+06
6.29872e+06
6.28478e+06
6.2106e+06
6.00813e+06
5.55807e+06
4.7143e+06
3.42628e+06
1.93e+06
733597
158068
16170.3
733.015
18.9954
0.580794
0.0488682
0.0147325
0.010506
0.0105721
0.0108631
0.0112335
0.0116656
0.0119129
0.011961
0.0119703
0.0118866
0.011812
0.0116055
0.0112739
0.0110945
0.0108975
0.0107906
0.0106402
0.010493
0.0103419
0.0101861
0.0100297
0.00987886
0.00979743
0.00961029
0.009549
0.00943349
0.00932048
0.0092684
0.00915911
0.00904754
-6.45265e-13
-6.44443e-13
-6.94023e-13
-8.33101e-13
-1.12378e-12
-1.66111e-12
-2.6411e-12
-4.49045e-12
-8.17662e-12
-1.59719e-11
-3.34098e-11
-7.44241e-11
-1.75112e-10
-4.31173e-10
-1.10063e-09
-2.88782e-09
-7.72395e-09
-2.09177e-08
-5.70004e-08
-1.55616e-07
-4.24151e-07
-1.15118e-06
-3.10895e-06
0.000102692
8.8412e-05
0.000418955
0.00171317
0.0045192
0.0118545
0.029921
0.0733661
0.172189
0.386127
0.828169
1.69637
3.3175
6.19129
11.0368
18.8259
30.813
48.537
73.8046
108.553
154.94
215.324
291.988
386.024
496.029
618.207
748.31
886.196
1037.75
1215.66
1440.17
1746.98
2202.66
2942.84
4252.99
6793.38
12184.1
25013.4
59853
172126
616569
2.80376e+06
1.74929e+07
1.53794e+08
2.14052e+09
4.98849e+10
2.82921e+11
3.39244e+09
2.3337e+07
1.37964e+07
1.32691e+07
1.28174e+07
1.23597e+07
1.1928e+07
1.15281e+07
1.1156e+07
1.0808e+07
1.0482e+07
1.0176e+07
9.88833e+06
9.61747e+06
9.36208e+06
9.12093e+06
8.89294e+06
8.67714e+06
8.47271e+06
8.27897e+06
8.09535e+06
7.92141e+06
7.75677e+06
7.60113e+06
7.45421e+06
7.31577e+06
7.18559e+06
7.06346e+06
6.94919e+06
6.84259e+06
6.74348e+06
6.65168e+06
6.56699e+06
6.48919e+06
6.41807e+06
6.35336e+06
6.29481e+06
6.2422e+06
6.19525e+06
6.15378e+06
6.11751e+06
6.08615e+06
6.05918e+06
6.03594e+06
6.01592e+06
5.99884e+06
5.98562e+06
5.97801e+06
5.9776e+06
5.98546e+06
5.99811e+06
6.00736e+06
5.99767e+06
5.92962e+06
5.73652e+06
5.30344e+06
4.4901e+06
3.25109e+06
1.81934e+06
684505
145392
14621
652.84
16.8369
0.519732
0.0446338
0.0136982
0.00990531
0.00992121
0.0103281
0.0108553
0.0113195
0.0117619
0.0118677
0.0119251
0.0118739
0.0118362
0.0115933
0.0112718
0.0110953
0.0108992
0.0107921
0.0106411
0.0104934
0.010342
0.0101861
0.0100296
0.00987885
0.00979743
0.0096103
0.00954901
0.0094335
0.00932049
0.00926841
0.00915912
0.00904755
-2.2578e-12
-2.24775e-12
-2.40714e-12
-2.86554e-12
-3.83032e-12
-5.60183e-12
-8.79338e-12
-1.47245e-11
-2.63367e-11
-5.03959e-11
-1.0299e-10
-2.23586e-10
-5.11669e-10
-1.22376e-09
-3.03234e-09
-7.72395e-09
-2.00678e-08
-5.28488e-08
-1.40245e-07
-3.7342e-07
-9.94021e-07
-2.63908e-06
-6.98425e-06
0.000241226
0.000580761
0.0015333
0.00378532
0.00950218
0.0242888
0.0607739
0.146272
0.338519
0.749694
1.58851
3.21317
6.20148
11.4172
20.079
33.7976
54.6045
84.9323
127.546
185.4
261.73
360.078
483.729
633.735
807.344
998.535