/*--------------------------------*- C++ -*----------------------------------*\
  =========                 |
  \\      /  F ield         | OpenFOAM: The Open Source CFD Toolbox
   \\    /   O peration     | Website:  https://openfoam.org
    \\  /    A nd           | Version:  13
     \\/     M anipulation  |
\*---------------------------------------------------------------------------*/
FoamFile
{
    format      ascii;
    class       volScalarField;
    location    "0.0016";
    object      rho;
}
// * * * * * * * * * * * * * * * * * * * * * * * * * * * * * * * * * * * * * //

dimensions      [1 -3 0 0 0 0 0];

internalField   nonuniform List<scalar> 
33334
(
0.566336
0.566699
0.567124
0.567909
0.568949
0.570306
0.571721
0.573872
0.575602
0.57826
0.581068
0.584164
0.587365
0.59061
0.593931
0.597282
0.600533
0.603566
0.606291
0.608661
0.610629
0.612174
0.613258
0.613862
0.614038
0.61387
0.61344
0.612777
0.611988
0.611254
0.61061
0.610036
0.609519
0.609067
0.608709
0.608544
0.608618
0.608956
0.609589
0.610447
0.611524
0.612883
0.614661
0.616863
0.619603
0.622837
0.626559
0.630831
0.635854
0.64178
0.648751
0.656895
0.666312
0.677136
0.689565
0.703746
0.719862
0.737969
0.758136
0.780375
0.804856
0.831703
0.861024
0.892942
0.927722
0.966127
1.00886
1.05795
1.11632
1.192
1.29446
1.36378
1.27035
0.902416
0.827727
0.827338
0.828047
0.828648
0.829106
0.829463
0.829668
0.829612
0.829072
0.8282
0.828436
0.828913
0.829374
0.829811
0.830253
0.830703
0.831157
0.831613
0.83207
0.832526
0.832983
0.833438
0.833891
0.834342
0.83479
0.835233
0.835672
0.836107
0.836536
0.836959
0.837377
0.83779
0.838196
0.838597
0.838992
0.839382
0.839765
0.840144
0.84052
0.840899
0.841283
0.841674
0.842065
0.842439
0.842775
0.843073
0.843354
0.843675
0.844188
0.845376
0.847714
0.852704
0.862689
0.881597
0.915233
0.971539
1.06029
1.19103
1.36665
1.57229
1.7674
1.90509
1.97614
1.99322
1.99513
1.99333
1.99064
1.98752
1.98451
1.98191
1.97959
1.97768
1.97616
1.97489
1.97366
1.97233
1.97087
1.96934
1.96779
1.96627
1.9648
1.9634
1.96206
1.96079
1.95957
1.95838
1.95717
1.95591
1.9546
1.95329
1.952
1.95073
0.566699
0.567111
0.567548
0.568393
0.569504
0.570875
0.572839
0.574845
0.576617
0.578843
0.581525
0.584399
0.587447
0.590668
0.59396
0.597193
0.60032
0.603279
0.605975
0.608329
0.610297
0.611851
0.612964
0.613624
0.613862
0.613779
0.613433
0.612848
0.61214
0.61146
0.610855
0.610318
0.609826
0.609387
0.609027
0.60883
0.608851
0.609098
0.609549
0.610255
0.611202
0.612523
0.614258
0.616501
0.619267
0.622431
0.626112
0.630418
0.635477
0.641394
0.648384
0.656424
0.665759
0.676488
0.688856
0.70298
0.719049
0.737166
0.757339
0.779664
0.804328
0.831426
0.861249
0.893777
0.928989
0.967764
1.01092
1.06082
1.12034
1.1956
1.29401
1.36616
1.27921
0.905476
0.82536
0.824512
0.824773
0.824832
0.824744
0.824612
0.824519
0.824684
0.82561
0.827137
0.827827
0.828253
0.828711
0.829203
0.829696
0.830184
0.830667
0.831148
0.831627
0.832102
0.832575
0.833044
0.833508
0.833969
0.834425
0.834875
0.835319
0.835757
0.83619
0.836615
0.837035
0.837448
0.837855
0.838256
0.838652
0.839042
0.839427
0.839807
0.840186
0.840568
0.840956
0.841353
0.841751
0.842133
0.842479
0.842787
0.843078
0.843416
0.843938
0.845123
0.847496
0.852499
0.862495
0.881407
0.915048
0.971364
1.06013
1.19088
1.3665
1.57214
1.76727
1.90501
1.9761
1.99322
1.99514
1.99334
1.99065
1.98752
1.98451
1.98191
1.9796
1.97768
1.97617
1.9749
1.97366
1.97233
1.97088
1.96935
1.96779
1.96627
1.9648
1.9634
1.96206
1.96079
1.95958
1.95838
1.95717
1.95591
1.95461
1.9533
1.952
1.95073
0.567124
0.567548
0.567933
0.568745
0.569817
0.57123
0.572904
0.574827
0.577477
0.580055
0.582776
0.585679
0.58879
0.592072
0.595394
0.598665
0.601833
0.604815
0.607506
0.609825
0.611728
0.613188
0.614177
0.614673
0.614758
0.61452
0.613997
0.613264
0.612445
0.611658
0.61095
0.610317
0.609766
0.609327
0.6091
0.609124
0.609378
0.609751
0.610169
0.610778
0.611604
0.612822
0.614503
0.616721
0.619454
0.622618
0.626277
0.630501
0.635452
0.641305
0.648231
0.656292
0.665648
0.676408
0.688776
0.702897
0.718953
0.737023
0.75714
0.779387
0.803926
0.8309
0.860414
0.892699
0.92806
0.967428
1.01183
1.06272
1.1227
1.19681
1.29303
1.35696
1.26011
0.894202
0.822261
0.821592
0.82191
0.822112
0.822316
0.822692
0.82331
0.824153
0.825047
0.825737
0.826206
0.826639
0.827093
0.827557
0.828021
0.828482
0.828942
0.829401
0.829858
0.830313
0.830766
0.831216
0.831663
0.832106
0.832546
0.832981
0.833411
0.833837
0.834257
0.834673
0.835084
0.835491
0.835894
0.836293
0.83669
0.837085
0.837477
0.837869
0.838264
0.838666
0.83908
0.839506
0.839939
0.84036
0.840751
0.841107
0.84145
0.841852
0.842436
0.84369
0.846156
0.851243
0.861331
0.880336
0.914067
0.970472
1.05932
1.19015
1.36588
1.57168
1.76701
1.90491
1.97608
1.99322
1.99514
1.99334
1.99065
1.98753
1.98452
1.98192
1.9796
1.97769
1.97617
1.9749
1.97367
1.97234
1.97088
1.96935
1.9678
1.96628
1.96481
1.96341
1.96207
1.9608
1.95958
1.95839
1.95718
1.95591
1.95461
1.9533
1.952
1.95073
0.567909
0.568393
0.568745
0.569586
0.570693
0.572125
0.573755
0.575754
0.578265
0.580821
0.583536
0.586484
0.589646
0.59292
0.596213
0.599479
0.602653
0.605637
0.608325
0.61064
0.612539
0.613994
0.614972
0.615456
0.615533
0.615284
0.614751
0.613995
0.613129
0.61227
0.611483
0.610786
0.610207
0.609793
0.609625
0.60972
0.609999
0.610285
0.610578
0.611088
0.611849
0.613045
0.614729
0.616957
0.619677
0.622824
0.626447
0.63063
0.63556
0.64141
0.648311
0.656343
0.665656
0.676364
0.688682
0.702761
0.718779
0.736806
0.75687
0.779071
0.803519
0.830402
0.859765
0.891966
0.927429
0.966954
1.01167
1.0627
1.12316
1.198
1.29707
1.35831
1.2414
0.879332
0.818367
0.818025
0.818513
0.818966
0.819475
0.820131
0.820877
0.82158
0.822118
0.822541
0.822966
0.823409
0.823862
0.824318
0.824774
0.825229
0.825684
0.826138
0.826592
0.827045
0.827496
0.827946
0.828393
0.828838
0.829281
0.82972
0.830157
0.83059
0.831021
0.83145
0.831876
0.832301
0.832727
0.833153
0.83358
0.834011
0.834444
0.834883
0.83533
0.835791
0.83627
0.836768
0.837281
0.837787
0.838271
0.838727
0.839173
0.839693
0.840399
0.841748
0.844352
0.849565
0.859778
0.878897
0.912729
0.969221
1.05816
1.1891
1.36498
1.57099
1.76657
1.9047
1.97602
1.99322
1.99514
1.99335
1.99066
1.98754
1.98453
1.98193
1.97961
1.97769
1.97618
1.97491
1.97367
1.97234
1.97089
1.96936
1.9678
1.96628
1.96481
1.96341
1.96207
1.9608
1.95958
1.95839
1.95718
1.95592
1.95461
1.9533
1.952
1.95074
0.568949
0.569504
0.569817
0.570693
0.571837
0.573287
0.574995
0.577065
0.579492
0.582078
0.584861
0.587872
0.591046
0.594299
0.597593
0.600876
0.604066
0.607053
0.609732
0.612034
0.613912
0.615341
0.616287
0.616729
0.616756
0.616454
0.61585
0.615006
0.614038
0.613089
0.612243
0.61154
0.611022
0.610726
0.610654
0.610747
0.610913
0.611
0.611109
0.611514
0.61223
0.613415
0.615089
0.61729
0.619962
0.623063
0.626631
0.630767
0.635669
0.641489
0.648343
0.656329
0.66558
0.676232
0.688493
0.702517
0.71847
0.736421
0.756396
0.778511
0.802856
0.829709
0.859142
0.891492
0.927291
0.967014
1.01196
1.06307
1.12353
1.19998
1.29957
1.35728
1.21169
0.862512
0.814206
0.814246
0.814902
0.815485
0.816048
0.816622
0.817148
0.817588
0.81797
0.818368
0.818792
0.819229
0.819671
0.820117
0.820566
0.821017
0.821469
0.821922
0.822376
0.822831
0.823286
0.823741
0.824196
0.824651
0.825105
0.825559
0.826011
0.826464
0.826917
0.82737
0.827826
0.828284
0.828747
0.829215
0.82969
0.830173
0.830666
0.831169
0.831688
0.832228
0.832791
0.833381
0.833992
0.834603
0.835199
0.835774
0.836341
0.836995
0.837843
0.839303
0.842052
0.847408
0.857766
0.877023
0.910983
0.967592
1.05664
1.18769
1.36373
1.56997
1.76587
1.90432
1.97588
1.9932
1.99514
1.99335
1.99066
1.98754
1.98453
1.98193
1.97961
1.97769
1.97618
1.97491
1.97368
1.97234
1.97089
1.96936
1.96781
1.96628
1.96482
1.96341
1.96207
1.9608
1.95959
1.95839
1.95718
1.95592
1.95462
1.9533
1.95201
1.95074
0.570306
0.570875
0.57123
0.572125
0.573287
0.574775
0.576569
0.578645
0.581018
0.583633
0.586475
0.589512
0.592679
0.595933
0.599248
0.602557
0.605758
0.608738
0.611399
0.613674
0.615516
0.616902
0.617807
0.618209
0.618194
0.617843
0.617173
0.616249
0.615206
0.614213
0.613357
0.612686
0.612235
0.611988
0.61189
0.611837
0.611772
0.611639
0.611596
0.611943
0.612642
0.61382
0.615473
0.617631
0.620243
0.623288
0.626798
0.630889
0.63576
0.64154
0.648348
0.656289
0.665471
0.676054
0.688247
0.702201
0.718069
0.735924
0.755806
0.777834
0.802113
0.828948
0.858416
0.890814
0.92671
0.966535
1.01149
1.06314
1.12465
1.20352
1.30401
1.35501
1.17369
0.845146
0.809589
0.80986
0.810511
0.811015
0.811445
0.811851
0.812229
0.812597
0.812983
0.813396
0.813824
0.814262
0.814707
0.815158
0.815614
0.816073
0.816536
0.817001
0.817469
0.81794
0.818412
0.818886
0.819362
0.81984
0.820319
0.820799
0.821281
0.821766
0.822254
0.822746
0.823244
0.82375
0.824264
0.824789
0.825326
0.825876
0.826441
0.827024
0.827629
0.82826
0.828921
0.829614
0.830334
0.831061
0.831779
0.83248
0.833175
0.833967
0.834964
0.836539
0.839431
0.844929
0.855431
0.87483
0.908927
0.965665
1.05482
1.18598
1.36212
1.56852
1.76472
1.90357
1.97552
1.99313
1.9951
1.99334
1.99067
1.98754
1.98453
1.98193
1.97961
1.9777
1.97618
1.97491
1.97368
1.97235
1.97089
1.96936
1.96781
1.96628
1.96482
1.96341
1.96207
1.9608
1.95959
1.95839
1.95718
1.95592
1.95462
1.9533
1.95201
1.95074
0.571721
0.572839
0.572904
0.573755
0.574995
0.576569
0.578401
0.580478
0.582856
0.585515
0.588395
0.591446
0.594628
0.597913
0.601258
0.604585
0.607786
0.610754
0.613392
0.615632
0.617428
0.618765
0.619619
0.619979
0.619923
0.619523
0.618786
0.617792
0.616692
0.61567
0.614813
0.614164
0.613725
0.613425
0.61317
0.612867
0.612531
0.612225
0.612112
0.612457
0.61316
0.614333
0.615956
0.618056
0.620599
0.623573
0.627018
0.631054
0.635874
0.64159
0.648336
0.6562
0.665297
0.67579
0.687895
0.701757
0.717518
0.73525
0.755021
0.776948
0.801183
0.827989
0.857451
0.889955
0.925998
0.966018
1.0114
1.06361
1.12667
1.20827
1.30807
1.35149
1.12481
0.828399
0.80434
0.804692
0.805244
0.80563
0.805964
0.80631
0.806674
0.807061
0.807472
0.8079
0.808341
0.808793
0.809253
0.809721
0.810195
0.810674
0.811157
0.811644
0.812135
0.812629
0.813127
0.813627
0.814131
0.814637
0.815147
0.81566
0.816178
0.816701
0.817231
0.817768
0.818315
0.818874
0.819446
0.820034
0.820639
0.821264
0.821909
0.822577
0.823272
0.824
0.824763
0.825562
0.826395
0.827238
0.828078
0.828904
0.829723
0.830646
0.831787
0.83348
0.836504
0.842141
0.852782
0.872323
0.906561
0.963433
1.05271
1.18396
1.36017
1.56665
1.76309
1.90229
1.97475
1.99293
1.99497
1.99328
1.99066
1.98755
1.98454
1.98193
1.97962
1.9777
1.97618
1.97491
1.97368
1.97235
1.97089
1.96936
1.96781
1.96628
1.96482
1.96341
1.96208
1.9608
1.95959
1.95839
1.95718
1.95592
1.95462
1.9533
1.95201
1.95074
0.573872
0.574845
0.574827
0.575754
0.577065
0.578645
0.580478
0.582593
0.58501
0.587704
0.59061
0.593691
0.596911
0.600233
0.603597
0.606926
0.610116
0.613066
0.615675
0.617873
0.619616
0.620893
0.621684
0.621991
0.621888
0.621433
0.620636
0.619588
0.61845
0.617406
0.616535
0.615855
0.615324
0.614844
0.614328
0.613753
0.613207
0.612821
0.612707
0.613065
0.613772
0.614937
0.616523
0.618564
0.621033
0.623923
0.627293
0.631257
0.636006
0.641637
0.648301
0.656063
0.665054
0.675433
0.687426
0.701167
0.7168
0.734388
0.754035
0.775865
0.800071
0.826825
0.856284
0.888866
0.92507
0.965459
1.01122
1.06471
1.12987
1.21482
1.31075
1.34734
1.06633
0.813291
0.798495
0.79888
0.799362
0.799702
0.800031
0.800396
0.800791
0.801208
0.801643
0.802092
0.802554
0.803028
0.803512
0.804003
0.804501
0.805005
0.805513
0.806026
0.806542
0.807063
0.807587
0.808116
0.808648
0.809185
0.809727
0.810274
0.810828
0.811391
0.811964
0.812548
0.813147
0.813762
0.814395
0.815049
0.815726
0.816427
0.817155
0.817911
0.818698
0.819524
0.820389
0.821294
0.822237
0.823194
0.82415
0.825095
0.826035
0.82708
0.828356
0.830167
0.833312
0.83908
0.849856
0.869534
0.90391
0.960914
1.05031
1.18163
1.35785
1.56433
1.7609
1.90039
1.97334
1.99249
1.99466
1.99312
1.99061
1.98754
1.98454
1.98194
1.97962
1.9777
1.97618
1.97491
1.97368
1.97235
1.97089
1.96936
1.96781
1.96628
1.96482
1.96341
1.96208
1.9608
1.95959
1.95839
1.95718
1.95592
1.95462
1.9533
1.95201
1.95074
0.575602
0.576617
0.577477
0.578265
0.579492
0.581018
0.582856
0.58501
0.587456
0.59018
0.593127
0.596259
0.599527
0.602878
0.606249
0.60957
0.612743
0.615667
0.618236
0.620384
0.622067
0.623275
0.623988
0.624227
0.624064
0.623542
0.622682
0.621581
0.6204
0.619314
0.618376
0.617577
0.616846
0.616099
0.615312
0.614543
0.613897
0.613504
0.613424
0.613792
0.614498
0.615646
0.617191
0.61917
0.621559
0.624354
0.627636
0.631515
0.636178
0.641707
0.648262
0.655887
0.664746
0.674981
0.686835
0.700428
0.715917
0.733347
0.752851
0.774585
0.798715
0.82541
0.854939
0.887631
0.924106
0.964968
1.0116
1.06674
1.13351
1.22276
1.31466
1.33327
1.00353
0.800392
0.792296
0.792731
0.793196
0.793547
0.793909
0.794309
0.794735
0.795178
0.795637
0.796111
0.796597
0.797096
0.797604
0.798119
0.798642
0.799169
0.7997
0.800236
0.800777
0.801321
0.80187
0.802424
0.802983
0.803548
0.80412
0.8047
0.805291
0.805893
0.806509
0.807141
0.807792
0.808465
0.809161
0.809883
0.810633
0.811413
0.812224
0.813069
0.813949
0.814871
0.815837
0.816847
0.817896
0.818961
0.820029
0.821087
0.822141
0.8233
0.824698
0.826625
0.82988
0.835772
0.846677
0.866489
0.901002
0.958139
1.04764
1.17902
1.3552
1.56156
1.75816
1.89782
1.9711
1.99169
1.99405
1.99276
1.99046
1.9875
1.98454
1.98194
1.97962
1.9777
1.97619
1.97491
1.97368
1.97235
1.97089
1.96936
1.96781
1.96628
1.96482
1.96341
1.96208
1.9608
1.95959
1.95839
1.95718
1.95592
1.95462
1.9533
1.95201
1.95074
0.57826
0.578843
0.580055
0.580821
0.582078
0.583633
0.585515
0.587704
0.59018
0.592942
0.595944
0.599132
0.602443
0.605815
0.609189
0.612499
0.615647
0.618536
0.621052
0.623136
0.624751
0.625881
0.6265
0.626654
0.62641
0.6258
0.624855
0.623677
0.622427
0.621255
0.620183
0.619185
0.618198
0.61719
0.616212
0.615364
0.614713
0.614346
0.614292
0.614654
0.615333
0.616448
0.61794
0.619854
0.622153
0.624846
0.62803
0.631811
0.636372
0.641771
0.648191
0.655652
0.664356
0.67442
0.686113
0.699536
0.714868
0.732131
0.751486
0.773137
0.797141
0.823846
0.85349
0.886353
0.923209
0.964665
1.01262
1.06928
1.13866
1.233
1.31831
1.30653
0.940852
0.789742
0.785967
0.786462
0.78693
0.787306
0.787701
0.788131
0.788582
0.789049
0.789531
0.790028
0.790537
0.791056
0.791585
0.792122
0.792664
0.793211
0.793762
0.794317
0.794877
0.795441
0.796011
0.796587
0.797169
0.79776
0.798361
0.798974
0.7996
0.800242
0.800902
0.801584
0.80229
0.803022
0.803783
0.804575
0.805401
0.806261
0.807156
0.80809
0.809062
0.81008
0.811144
0.812254
0.813405
0.814574
0.815746
0.81691
0.818073
0.819338
0.820846
0.822883
0.826242
0.832248
0.843277
0.863221
0.897874
0.955149
1.04477
1.17619
1.35228
1.5584
1.75488
1.89458
1.96786
1.99036
1.993
1.99208
1.99012
1.98736
1.9845
1.98194
1.97963
1.97771
1.97619
1.97491
1.97368
1.97235
1.97089
1.96936
1.96781
1.96628
1.96482
1.96341
1.96208
1.9608
1.95959
1.95839
1.95718
1.95592
1.95462
1.9533
1.95201
1.95074
0.581068
0.581525
0.582776
0.583536
0.584861
0.586475
0.588395
0.59061
0.593127
0.595944
0.599007
0.60225
0.605601
0.608996
0.612377
0.615677
0.618791
0.621628
0.624074
0.626079
0.627612
0.628651
0.629162
0.629212
0.628862
0.628134
0.627073
0.625779
0.62442
0.623113
0.621856
0.620627
0.619407
0.61822
0.61716
0.616322
0.615717
0.615378
0.615311
0.615623
0.616252
0.61731
0.618732
0.620564
0.622759
0.625341
0.628418
0.632079
0.636509
0.641768
0.648026
0.655305
0.66383
0.673705
0.685222
0.698464
0.713637
0.73074
0.749969
0.771552
0.79546
0.822272
0.851989
0.885202
0.922422
0.964809
1.01418
1.07205
1.1457
1.24487
1.32115
1.26248
0.883145
0.780966
0.779609
0.780151
0.78062
0.781017
0.78144
0.781893
0.782365
0.782852
0.783353
0.783868
0.784395
0.784932
0.785477
0.786029
0.786587
0.787149
0.787715
0.788285
0.788861
0.789442
0.79003
0.790626
0.791231
0.791847
0.792477
0.793122
0.793786
0.79447
0.795177
0.795911
0.796674
0.797469
0.798298
0.799163
0.800066
0.801007
0.801988
0.803009
0.804073
0.805184
0.806343
0.80755
0.808797
0.810064
0.811334
0.812597
0.813862
0.815223
0.816833
0.81897
0.822426
0.828539
0.839688
0.859765
0.894562
0.951987
1.04173
1.1732
1.34917
1.55493
1.75111
1.89078
1.9636
1.98821
1.99145
1.99099
1.98949
1.98703
1.98436
1.98191
1.97963
1.97772
1.9762
1.97492
1.97368
1.97235
1.97089
1.96936
1.96781
1.96628
1.96482
1.96341
1.96208
1.9608
1.95959
1.95839
1.95718
1.95592
1.95462
1.9533
1.95201
1.95074
0.584164
0.584399
0.585679
0.586484
0.587872
0.589512
0.591446
0.593691
0.596259
0.599132
0.60225
0.60554
0.608931
0.612357
0.615749
0.619035
0.622102
0.624868
0.627227
0.629138
0.630575
0.631507
0.631903
0.631833
0.631347
0.630473
0.629261
0.627817
0.626314
0.624836
0.623381
0.621948
0.620572
0.619309
0.618248
0.617458
0.616895
0.616558
0.616427
0.616637
0.617189
0.618156
0.619479
0.621205
0.623271
0.62572
0.628662
0.632197
0.636482
0.641587
0.647657
0.654743
0.663076
0.672758
0.684096
0.697162
0.712183
0.729142
0.748286
0.769811
0.79374
0.820679
0.850523
0.884225
0.921949
0.96545
1.01617
1.07625
1.15425
1.25816
1.32121
1.19965
0.834616
0.773442
0.773241
0.773811
0.774274
0.774688
0.775132
0.775604
0.776092
0.776596
0.777112
0.777642
0.778182
0.778731
0.779289
0.779853
0.780422
0.780995
0.781573
0.782157
0.782746
0.783342
0.783947
0.784563
0.785192
0.785835
0.786496
0.787176
0.78788
0.788609
0.789367
0.790157
0.790981
0.791842
0.792741
0.793681
0.794663
0.795686
0.796752
0.79786
0.799013
0.800214
0.801464
0.802763
0.804102
0.805461
0.80682
0.808174
0.809534
0.810984
0.812686
0.814914
0.81846
0.824674
0.83594
0.856152
0.891105
0.948697
1.03859
1.17011
1.34595
1.55122
1.74689
1.88649
1.95856
1.98455
1.98945
1.98947
1.98845
1.98641
1.98403
1.98177
1.9796
1.97772
1.97621
1.97493
1.97369
1.97235
1.97089
1.96936
1.96781
1.96628
1.96482
1.96341
1.96208
1.9608
1.95959
1.95839
1.95718
1.95592
1.95462
1.9533
1.95201
1.95074
0.587365
0.587447
0.58879
0.589646
0.591046
0.592679
0.594628
0.596911
0.599527
0.602443
0.605601
0.608931
0.612361
0.615817
0.619214
0.62247
0.62547
0.628144
0.630396
0.632197
0.633528
0.634334
0.634605
0.634406
0.633771
0.632735
0.631354
0.629749
0.628088
0.626439
0.624818
0.623246
0.621794
0.620525
0.619495
0.618736
0.618169
0.617772
0.617536
0.617592
0.618015
0.618868
0.620065
0.621636
0.623543
0.625851
0.628648
0.632043
0.636168
0.641088
0.646954
0.653842
0.661974
0.671474
0.682636
0.695545
0.710427
0.727275
0.746382
0.767881
0.79198
0.81905
0.849256
0.883448
0.921898
0.966546
1.01868
1.08202
1.16488
1.27157
1.31695
1.1185
0.797687
0.766574
0.766856
0.767437
0.76789
0.76832
0.768782
0.769268
0.76977
0.770286
0.770815
0.771355
0.771905
0.772465
0.773032
0.773605
0.774183
0.774766
0.775355
0.77595
0.776552
0.777164
0.777788
0.778425
0.779079
0.779751
0.780446
0.781166
0.781914
0.782692
0.783505
0.784355
0.785243
0.786173
0.787145
0.788162
0.789223
0.790328
0.791477
0.792671
0.79391
0.795196
0.796533
0.797919
0.799343
0.800788
0.802229
0.803666
0.805112
0.806643
0.808428
0.81074
0.814368
0.820678
0.832061
0.852413
0.887535
0.945318
1.03539
1.16699
1.34268
1.54736
1.74225
1.88176
1.95308
1.97932
1.98646
1.98754
1.98697
1.98541
1.98342
1.98144
1.97947
1.97768
1.9762
1.97494
1.9737
1.97236
1.9709
1.96936
1.96781
1.96628
1.96482
1.96341
1.96208
1.9608
1.95959
1.95839
1.95718
1.95592
1.95462
1.9533
1.95201
1.95074
0.59061
0.590668
0.592072
0.59292
0.594299
0.595933
0.597913
0.600233
0.602878
0.605815
0.608996
0.612357
0.615817
0.61929
0.622671
0.625877
0.628791
0.631355
0.633489
0.635173
0.636388
0.637053
0.637185
0.636848
0.636053
0.634847
0.633297
0.631537
0.629728
0.627936
0.626202
0.62456
0.623085
0.621836
0.620823
0.620037
0.619397
0.618863
0.618469
0.618351
0.618598
0.619301
0.620353
0.621757
0.623482
0.625629
0.628258
0.631475
0.635398
0.640124
0.64578
0.652479
0.660416
0.669758
0.680766
0.693555
0.708326
0.725114
0.744232
0.765759
0.790135
0.817377
0.848182
0.882856
0.922298
0.968154
1.02223
1.0891
1.17846
1.27989
1.31294
1.0193
0.773332
0.759988
0.760457
0.761025
0.761473
0.761918
0.762395
0.762894
0.763407
0.763933
0.764471
0.76502
0.765578
0.766146
0.76672
0.767301
0.767888
0.76848
0.769078
0.769685
0.770302
0.770931
0.771575
0.772236
0.772918
0.773624
0.774357
0.77512
0.775917
0.776749
0.77762
0.778533
0.779489
0.78049
0.781536
0.78263
0.78377
0.784955
0.786186
0.787462
0.788783
0.790151
0.79157
0.793035
0.794539
0.796062
0.797579
0.79909
0.800613
0.802219
0.80408
0.806467
0.810171
0.816574
0.828074
0.848576
0.883885
0.941888
1.03218
1.16389
1.33943
1.54343
1.7373
1.87653
1.94741
1.97316
1.98186
1.98484
1.98498
1.98398
1.98244
1.98084
1.97917
1.97755
1.97617
1.97494
1.97371
1.97237
1.9709
1.96936
1.96781
1.96628
1.96482
1.96341
1.96208
1.9608
1.95959
1.95839
1.95718
1.95592
1.95462
1.9533
1.95201
1.95074
0.593931
0.59396
0.595394
0.596213
0.597593
0.599248
0.601258
0.603597
0.606249
0.609189
0.612377
0.615749
0.619214
0.622671
0.626002
0.629126
0.631929
0.634368
0.63638
0.637943
0.639039
0.639565
0.639559
0.639085
0.638138
0.636777
0.635076
0.633181
0.63125
0.629351
0.627544
0.62587
0.624388
0.623133
0.62208
0.62118
0.620385
0.619643
0.619046
0.618748
0.618825
0.619369
0.620273
0.621492
0.623011
0.624945
0.627351
0.630365
0.634083
0.638624
0.644079
0.650606
0.658363
0.667583
0.678465
0.69118
0.705879
0.722675
0.741855
0.763524
0.788224
0.815734
0.84718
0.882497
0.923244
0.970467
1.02703
1.09795
1.1949
1.28862
1.28498
0.923483
0.758123
0.753487
0.75404
0.754585
0.755032
0.755491
0.755981
0.75649
0.757012
0.757547
0.758093
0.758649
0.759215
0.759789
0.76037
0.760958
0.761552
0.762154
0.762763
0.763383
0.764016
0.764664
0.765331
0.766021
0.766735
0.767479
0.768254
0.769065
0.769914
0.770803
0.771737
0.772715
0.773741
0.774814
0.775935
0.777105
0.778323
0.779587
0.780896
0.78225
0.783649
0.785094
0.786588
0.788127
0.789704
0.791299
0.792884
0.794463
0.796054
0.797728
0.799656
0.802113
0.805888
0.812382
0.824002
0.844664
0.880182
0.93844
1.02899
1.16085
1.33625
1.53952
1.73215
1.87085
1.94146
1.96651
1.97596
1.98075
1.98224
1.98199
1.98103
1.97989
1.97861
1.97724
1.97603
1.9749
1.97371
1.97238
1.97092
1.96937
1.96781
1.96629
1.96482
1.96341
1.96208
1.9608
1.95959
1.95839
1.95718
1.95592
1.95462
1.9533
1.95201
1.95074
0.597282
0.597193
0.598665
0.599479
0.600876
0.602557
0.604585
0.606926
0.60957
0.612499
0.615677
0.619035
0.62247
0.625877
0.629126
0.632144
0.634824
0.637132
0.639021
0.640464
0.641418
0.641807
0.641662
0.64104
0.639952
0.638452
0.636627
0.634627
0.632605
0.630632
0.628771
0.62707
0.625556
0.624233
0.62306
0.621953
0.620926
0.619976
0.619196
0.618726
0.618645
0.619028
0.619764
0.620742
0.622004
0.623694
0.625872
0.628692
0.632221
0.636596
0.641869
0.648246
0.655852
0.664986
0.675781
0.688477
0.703158
0.720044
0.739363
0.761272
0.786292
0.814261
0.846348
0.882586
0.924547
0.97362
1.0332
1.10925
1.2138
1.2945
1.22435
0.843547
0.748079
0.747013
0.747609
0.748127
0.748577
0.749051
0.749552
0.75007
0.7506
0.751142
0.751694
0.752257
0.752828
0.753408
0.753996
0.754591
0.755193
0.755804
0.756426
0.757061
0.757713
0.758383
0.759077
0.759798
0.76055
0.761335
0.762157
0.763019
0.763925
0.764875
0.765873
0.76692
0.768016
0.769162
0.770357
0.771602
0.772895
0.774235
0.775619
0.777046
0.778518
0.780035
0.781599
0.783206
0.784849
0.786509
0.788157
0.789796
0.791449
0.793184
0.795172
0.797694
0.801537
0.80812
0.819866
0.840702
0.876455
0.935007
1.02586
1.15794
1.3332
1.53572
1.72694
1.86479
1.93505
1.95953
1.96934
1.97528
1.97828
1.97923
1.97908
1.97852
1.97771
1.97669
1.97571
1.97476
1.97368
1.97239
1.97093
1.96939
1.96782
1.96629
1.96482
1.96341
1.96208
1.9608
1.95959
1.95839
1.95718
1.95592
1.95462
1.9533
1.95201
1.95074
0.600533
0.60032
0.601833
0.602653
0.604066
0.605758
0.607786
0.610116
0.612743
0.615647
0.618791
0.622102
0.62547
0.628791
0.631929
0.634824
0.637379
0.639561
0.641341
0.642676
0.643492
0.643747
0.643476
0.642716
0.641492
0.639863
0.637921
0.635824
0.633724
0.631685
0.629761
0.627997
0.62639
0.624915
0.623551
0.622231
0.620986
0.619842
0.618892
0.618256
0.618005
0.618184
0.618699
0.619429
0.620438
0.621897
0.623873
0.626529
0.629901
0.634131
0.639243
0.64549
0.652971
0.662054
0.672808
0.685546
0.700271
0.717343
0.736859
0.759161
0.78455
0.813205
0.845829
0.8832
0.926744
0.978107
1.04092
1.12384
1.23402
1.2949
1.13296
0.785203
0.740433
0.740557
0.741169
0.741661
0.742119
0.742606
0.743117
0.743642
0.74418
0.744728
0.745286
0.745854
0.746431
0.747016
0.74761
0.748212
0.748824
0.749447
0.750083
0.750736
0.751409
0.752106
0.75283
0.753587
0.754379
0.75521
0.756083
0.757001
0.757966
0.75898
0.760045
0.76116
0.762327
0.763545
0.764813
0.766131
0.767497
0.768908
0.770363
0.77186
0.773399
0.774982
0.776611
0.778281
0.779984
0.781702
0.783407
0.785101
0.78681
0.788599
0.790642
0.793224
0.797132
0.803806
0.815685
0.836711
0.872727
0.931618
1.02285
1.1552
1.33035
1.53211
1.72174
1.85846
1.928
1.95219
1.9623
1.96889
1.973
1.97532
1.97634
1.97662
1.97641
1.97583
1.97515
1.97444
1.97355
1.97236
1.97094
1.9694
1.96784
1.9663
1.96482
1.96341
1.96208
1.9608
1.95959
1.95839
1.95718
1.95592
1.95462
1.9533
1.95201
1.95074
0.603566
0.603279
0.604815
0.605637
0.607053
0.608738
0.610754
0.613066
0.615667
0.618536
0.621628
0.624868
0.628144
0.631355
0.634368
0.637132
0.639561
0.641618
0.64329
0.644515
0.64519
0.645309
0.644918
0.644026
0.642679
0.640928
0.638868
0.636665
0.634464
0.632334
0.630314
0.628453
0.626728
0.625089
0.623531
0.622004
0.620565
0.61924
0.618102
0.617262
0.616831
0.6168
0.61706
0.617577
0.618359
0.619622
0.621439
0.623965
0.627205
0.631304
0.636277
0.642421
0.649826
0.658906
0.669693
0.682533
0.697402
0.714713
0.734561
0.75732
0.78314
0.812542
0.846072
0.884754
0.930023
0.983918
1.05084
1.14227
1.25165
1.29027
1.01423
0.75001
0.733661
0.734125
0.734722
0.735198
0.735666
0.736165
0.736684
0.737217
0.73776
0.738314
0.738878
0.739451
0.740032
0.740623
0.741224
0.741835
0.742457
0.743093
0.743746
0.74442
0.745118
0.745845
0.746605
0.747401
0.748238
0.749119
0.750047
0.751023
0.752051
0.75313
0.754262
0.755447
0.756684
0.757972
0.759312
0.760699
0.762134
0.763614
0.765134
0.766696
0.768299
0.769943
0.771631
0.773358
0.775116
0.776888
0.778644
0.780388
0.782147
0.783985
0.786079
0.788717
0.792688
0.799455
0.811476
0.832711
0.869026
0.928306
1.01997
1.15269
1.32776
1.52874
1.7166
1.85189
1.92025
1.94442
1.95492
1.96197
1.96674
1.97013
1.97246
1.97395
1.97461
1.97458
1.97428
1.97387
1.97323
1.97224
1.97092
1.96942
1.96786
1.96632
1.96483
1.96342
1.96208
1.9608
1.95959
1.95839
1.95718
1.95592
1.95462
1.9533
1.95201
1.95074
0.606291
0.605975
0.607506
0.608325
0.609732
0.611399
0.613392
0.615675
0.618236
0.621052
0.624074
0.627227
0.630396
0.633489
0.63638
0.639021
0.641341
0.64329
0.644854
0.645958
0.646492
0.64647
0.64595
0.644905
0.643408
0.641508
0.639323
0.63702
0.634717
0.632487
0.630367
0.628389
0.626534
0.62473
0.622986
0.621247
0.619605
0.618104
0.616785
0.615751
0.615143
0.614899
0.61492
0.615262
0.615855
0.61697
0.618672
0.62109
0.624213
0.628192
0.633061
0.639143
0.646541
0.655675
0.666557
0.679553
0.69462
0.71227
0.732492
0.755811
0.782246
0.812526
0.847064
0.887179
0.934651
0.991456
1.0638
1.16436
1.26436
1.25948
0.895369
0.731612
0.727141
0.727714
0.728278
0.728746
0.729226
0.729736
0.730262
0.730801
0.73135
0.731909
0.732477
0.733054
0.733641
0.734238
0.734847
0.735467
0.736103
0.736755
0.737428
0.738126
0.738853
0.739614
0.740413
0.741254
0.74214
0.743074
0.74406
0.745097
0.746189
0.747334
0.748534
0.749787
0.751093
0.75245
0.753857
0.755312
0.756813
0.758356
0.759939
0.761561
0.763222
0.764923
0.766665
0.768445
0.770253
0.772073
0.773875
0.775665
0.777471
0.779354
0.781493
0.784183
0.788218
0.795083
0.807256
0.828723
0.865373
0.925097
1.01728
1.15042
1.32546
1.52561
1.71159
1.84507
1.91202
1.93619
1.94716
1.95462
1.95986
1.96396
1.96735
1.97009
1.97203
1.97287
1.97305
1.97299
1.97267
1.97194
1.9708
1.9694
1.96787
1.96634
1.96485
1.96343
1.96208
1.9608
1.95959
1.95839
1.95718
1.95592
1.95462
1.9533
1.95201
1.95074
0.608661
0.608329
0.609825
0.61064
0.612034
0.613674
0.615632
0.617873
0.620384
0.623136
0.626079
0.629138
0.632197
0.635173
0.637943
0.640464
0.642676
0.644515
0.645958
0.646901
0.647278
0.647104
0.646438
0.645256
0.643617
0.64157
0.639256
0.636855
0.634456
0.632135
0.629919
0.627809
0.625788
0.623786
0.621833
0.619905
0.618091
0.616447
0.614981
0.613775
0.612992
0.612529
0.612384
0.612557
0.613021
0.614019
0.615624
0.617939
0.620954
0.624837
0.629653
0.635725
0.643195
0.652429
0.663482
0.676668
0.692075
0.710087
0.730894
0.754767
0.782011
0.813083
0.849044
0.890719
0.940419
1.00113
1.08031
1.19087
1.27317
1.18082
0.802859
0.721317
0.720701
0.721315
0.721844
0.722312
0.722805
0.723323
0.723856
0.7244
0.724954
0.725517
0.72609
0.726672
0.727265
0.727869
0.728487
0.729119
0.72977
0.730441
0.731138
0.731864
0.732624
0.733424
0.734266
0.735155
0.736094
0.737085
0.73813
0.739231
0.740387
0.741599
0.742866
0.744186
0.745559
0.746983
0.748455
0.749973
0.751535
0.753139
0.75478
0.756458
0.758173
0.759926
0.76172
0.763548
0.765403
0.767266
0.769111
0.770941
0.77279
0.774715
0.776896
0.779636
0.783736
0.790702
0.803039
0.824762
0.861787
0.922013
1.01479
1.14841
1.32348
1.52267
1.70676
1.8381
1.90344
1.92748
1.93892
1.94685
1.95249
1.95709
1.96124
1.96502
1.96824
1.9704
1.9714
1.97178
1.97179
1.97139
1.97051
1.96928
1.96785
1.96635
1.96487
1.96345
1.96209
1.96081
1.95959
1.95839
1.95718
1.95592
1.95462
1.9533
1.95201
1.95074
0.610629
0.610297
0.611728
0.612539
0.613912
0.615516
0.617428
0.619616
0.622067
0.624751
0.627612
0.630575
0.633528
0.636388
0.639039
0.641418
0.643492
0.64519
0.646492
0.647278
0.647508
0.6472
0.64639
0.645071
0.643295
0.641112
0.638685
0.636185
0.633679
0.631238
0.628888
0.626617
0.624423
0.62224
0.620118
0.61805
0.616113
0.614359
0.612778
0.611427
0.610477
0.609841
0.609558
0.609563
0.609938
0.610831
0.612344
0.61456
0.617489
0.62132
0.626146
0.632266
0.639879
0.649259
0.660534
0.673988
0.689791
0.708311
0.729694
0.754322
0.782369
0.814645
0.851845
0.89572
0.947856
1.01344
1.10092
1.22037
1.2687
1.06213
0.743632
0.713964
0.714308
0.714929
0.715427
0.715902
0.716406