/*--------------------------------*- C++ -*----------------------------------*\
  =========                 |
  \\      /  F ield         | OpenFOAM: The Open Source CFD Toolbox
   \\    /   O peration     | Website:  https://openfoam.org
    \\  /    A nd           | Version:  13
     \\/     M anipulation  |
\*---------------------------------------------------------------------------*/
FoamFile
{
    format      ascii;
    class       volScalarField;
    location    "0.0016";
    object      T;
}
// * * * * * * * * * * * * * * * * * * * * * * * * * * * * * * * * * * * * * //

dimensions      [0 0 0 1 0 0 0];

internalField   nonuniform List<scalar> 
33334
(
2659.76
2660.17
2660.64
2661.52
2662.68
2664.19
2665.77
2668.17
2670.04
2672.95
2676.06
2679.56
2683.29
2687.22
2691.43
2695.91
2700.54
2705.24
2709.91
2714.47
2718.78
2722.69
2726.07
2728.84
2730.96
2732.4
2733.21
2733.43
2733.24
2732.61
2731.57
2730.18
2728.51
2726.65
2724.77
2723.14
2722.13
2721.88
2722.14
2722.91
2724.34
2726.66
2730.15
2734.72
2740.27
2746.62
2753.7
2761.53
2770.29
2780.08
2790.93
2802.86
2815.83
2829.83
2844.9
2861.07
2878.43
2896.97
2916.72
2937.65
2959.84
2983.29
3007.93
3033.83
3061.27
3090.95
3123.27
3158.84
3199.25
3245.95
3261.04
2574.56
1409.68
999.928
970.176
967.609
965.324
962.95
960.614
958.328
956.064
953.774
951.379
948.95
946.965
945.113
943.305
941.541
939.827
938.162
936.542
934.964
933.428
931.929
930.468
929.042
927.649
926.287
924.957
923.655
922.382
921.135
919.915
918.72
917.549
916.401
915.276
914.173
913.091
912.031
910.991
909.972
908.969
907.979
906.996
906.021
905.063
904.14
903.275
902.479
901.727
900.935
899.933
898.41
895.547
889.997
879.391
860.303
828.61
780.751
715.803
637.67
555.734
482.453
427.965
395.536
381.414
376.861
375.962
375.791
375.839
375.945
376.048
376.076
376.051
375.965
375.813
375.622
375.431
375.265
375.13
375.02
374.92
374.821
374.716
374.605
374.49
374.377
374.272
374.174
374.083
373.996
373.911
373.827
373.742
373.655
2660.17
2660.64
2661.12
2662.06
2663.3
2664.83
2667.03
2669.26
2671.19
2673.62
2676.59
2679.85
2683.4
2687.3
2691.47
2695.81
2700.3
2704.91
2709.54
2714.08
2718.39
2722.3
2725.71
2728.54
2730.74
2732.3
2733.23
2733.56
2733.47
2732.96
2731.98
2730.62
2728.96
2727.1
2725.22
2723.55
2722.4
2722
2722.14
2722.74
2724
2726.27
2729.7
2734.28
2739.85
2746.11
2753.15
2761.03
2769.86
2779.64
2790.52
2802.36
2815.27
2829.19
2844.23
2860.38
2877.74
2896.34
2916.14
2937.2
2959.61
2983.37
3008.62
3035.27
3063.27
3093.23
3125.61
3161.51
3202.45
3248.89
3262.96
2589.89
1420.55
1001.26
969.316
966.594
964.168
961.621
959.1
956.651
954.292
952.099
950.226
948.603
946.766
944.89
943.083
941.338
939.641
937.989
936.379
934.81
933.281
931.789
930.333
928.911
927.522
926.165
924.837
923.538
922.266
921.021
919.802
918.607
917.437
916.29
915.165
914.062
912.98
911.92
910.881
909.862
908.86
907.871
906.89
905.917
904.961
904.04
903.178
902.386
901.637
900.852
899.853
898.331
895.483
889.945
879.354
860.282
828.606
780.761
715.825
637.698
555.765
482.479
427.981
395.543
381.415
376.861
375.962
375.79
375.838
375.944
376.047
376.075
376.05
375.965
375.813
375.622
375.43
375.264
375.13
375.019
374.919
374.82
374.715
374.604
374.489
374.377
374.271
374.174
374.083
373.995
373.91
373.826
373.742
373.654
2660.64
2661.12
2661.54
2662.44
2663.63
2665.2
2667.07
2669.21
2672.15
2674.99
2678.02
2681.31
2684.94
2688.9
2693.1
2697.48
2702.02
2706.66
2711.27
2715.75
2719.96
2723.76
2727.04
2729.71
2731.76
2733.15
2733.92
2734.14
2734
2733.42
2732.31
2730.78
2728.99
2727.12
2725.38
2723.99
2723.11
2722.81
2722.96
2723.5
2724.63
2726.78
2730.13
2734.65
2740.14
2746.38
2753.4
2761.21
2769.93
2779.65
2790.47
2802.36
2815.34
2829.34
2844.43
2860.62
2878
2896.61
2916.41
2937.45
2959.83
2983.62
3008.91
3035.85
3064.42
3094.97
3128.12
3164.69
3205.56
3250.72
3259.13
2539.92
1393.37
996.668
968.208
965.539
963.133
960.639
958.229
955.961
953.849
951.882
949.997
948.104
946.192
944.324
942.518
940.766
939.061
937.402
935.786
934.212
932.677
931.18
929.719
928.293
926.9
925.538
924.206
922.903
921.629
920.381
919.159
917.963
916.791
915.643
914.518
913.415
912.335
911.278
910.243
909.228
908.233
907.251
906.279
905.317
904.373
903.466
902.619
901.842
901.112
900.349
899.371
897.872
895.06
889.559
879.015
859.996
828.381
780.598
715.725
637.656
555.765
482.5
428.004
395.557
381.42
376.861
375.961
375.789
375.836
375.943
376.045
376.073
376.049
375.963
375.811
375.621
375.429
375.263
375.128
375.018
374.918
374.819
374.714
374.603
374.488
374.376
374.27
374.173
374.082
373.995
373.909
373.825
373.741
373.654
2661.52
2662.06
2662.44
2663.37
2664.59
2666.18
2668
2670.22
2673
2675.83
2678.87
2682.22
2685.92
2689.88
2694.07
2698.47
2703.04
2707.69
2712.29
2716.73
2720.9
2724.67
2727.93
2730.62
2732.68
2734.07
2734.83
2735.07
2734.92
2734.28
2733.06
2731.41
2729.55
2727.68
2726.03
2724.79
2724.01
2723.65
2723.72
2724.2
2725.29
2727.43
2730.77
2735.26
2740.68
2746.88
2753.85
2761.62
2770.31
2780.05
2790.88
2802.77
2815.75
2829.76
2844.86
2861.06
2878.47
2897.1
2916.95
2938.07
2960.52
2984.45
3009.85
3036.92
3065.72
3096.5
3129.99
3166.84
3208.02
3252.75
3255.48
2466.54
1356.11
990.582
966.821
964.253
961.9
959.497
957.198
955.03
952.963
950.951
948.95
946.97
945.049
943.19
941.388
939.636
937.933
936.276
934.662
933.09
931.557
930.063
928.604
927.181
925.791
924.432
923.105
921.806
920.536
919.293
918.078
916.888
915.723
914.584
913.468
912.376
911.309
910.265
909.245
908.247
907.271
906.31
905.36
904.423
903.506
902.628
901.813
901.07
900.375
899.651
898.714
897.246
894.481
889.03
878.539
859.578
828.025
780.316
715.524
637.537
555.711
482.485
428.005
395.56
381.421
376.861
375.96
375.788
375.835
375.942
376.044
376.072
376.048
375.962
375.81
375.62
375.428
375.262
375.128
375.017
374.917
374.818
374.714
374.602
374.488
374.375
374.269
374.172
374.081
373.994
373.909
373.825
373.741
373.653
2662.68
2663.3
2663.63
2664.59
2665.86
2667.47
2669.36
2671.64
2674.33
2677.2
2680.32
2683.75
2687.47
2691.43
2695.63
2700.06
2704.66
2709.31
2713.89
2718.29
2722.4
2726.13
2729.36
2732.03
2734.06
2735.39
2736.07
2736.22
2735.98
2735.21
2733.92
2732.27
2730.48
2728.74
2727.23
2726.07
2725.24
2724.73
2724.64
2725.08
2726.17
2728.34
2731.7
2736.16
2741.53
2747.67
2754.57
2762.28
2770.97
2780.72
2791.55
2803.44
2816.38
2830.38
2845.46
2861.66
2879.06
2897.7
2917.59
2938.79
2961.34
2985.41
3010.98
3038.19
3067.26
3098.37
3132.22
3169.15
3210.68
3255.51
3244.62
2364.13
1306.05
983.856
965.316
962.875
960.564
958.21
955.936
953.746
951.611
949.516
947.467
945.484
943.57
941.715
939.914
938.165
936.465
934.811
933.201
931.633
930.105
928.615
927.163
925.745
924.362
923.01
921.69
920.4
919.139
917.906
916.7
915.522
914.37
913.244
912.144
911.069
910.019
908.995
907.997
907.023
906.072
905.139
904.219
903.313
902.431
901.589
900.811
900.109
899.455
898.777
897.887
896.454
893.737
888.338
877.903
859
827.51
779.87
715.16
637.267
555.539
482.393
427.963
395.542
381.415
376.86
375.959
375.787
375.834
375.941
376.044
376.072
376.047
375.962
375.81
375.619
375.428
375.262
375.127
375.017
374.917
374.818
374.713
374.602
374.487
374.375
374.269
374.172
374.081
373.994
373.909
373.825
373.741
373.653
2664.19
2664.83
2665.2
2666.18
2667.47
2669.11
2671.09
2673.37
2675.99
2678.89
2682.07
2685.53
2689.25
2693.21
2697.43
2701.9
2706.51
2711.15
2715.7
2720.06
2724.13
2727.8
2731
2733.62
2735.6
2736.9
2737.5
2737.57
2737.26
2736.42
2735.12
2733.53
2731.83
2730.19
2728.71
2727.43
2726.44
2725.77
2725.57
2726
2727.14
2729.38
2732.78
2737.25
2742.57
2748.66
2755.49
2763.15
2771.81
2781.53
2792.34
2804.23
2817.15
2831.12
2846.17
2862.35
2879.73
2898.37
2918.29
2939.55
2962.18
2986.36
3012.06
3039.38
3068.63
3100
3134.11
3171.57
3213.65
3259.42
3227.35
2241.7
1251.8
977.303
963.618
961.253
958.928
956.556
954.245
952.006
949.83
947.718
945.678
943.708
941.802
939.954
938.161
936.42
934.729
933.083
931.483
929.924
928.407
926.928
925.486
924.079
922.707
921.368
920.06
918.783
917.536
916.317
915.127
913.965
912.831
911.724
910.644
909.591
908.564
907.566
906.594
905.649
904.729
903.828
902.943
902.073
901.229
900.426
899.691
899.032
898.422
897.792
896.951
895.554
892.883
887.53
877.142
858.284
826.839
779.254
714.616
636.823
555.215
482.188
427.852
395.487
381.391
376.854
375.955
375.786
375.834
375.941
376.044
376.071
376.047
375.962
375.81
375.619
375.428
375.262
375.127
375.016
374.917
374.818
374.713
374.602
374.487
374.375
374.269
374.172
374.081
373.994
373.909
373.825
373.741
373.653
2665.77
2667.03
2667.07
2668
2669.36
2671.09
2673.1
2675.38
2678
2680.94
2684.16
2687.63
2691.36
2695.34
2699.6
2704.08
2708.68
2713.31
2717.83
2722.15
2726.17
2729.8
2732.94
2735.51
2737.44
2738.69
2739.23
2739.24
2738.87
2738
2736.72
2735.19
2733.56
2731.91
2730.31
2728.82
2727.61
2726.86
2726.65
2727.12
2728.35
2730.68
2734.11
2738.56
2743.84
2749.86
2756.64
2764.25
2772.87
2782.54
2793.31
2805.15
2818.04
2831.95
2846.96
2863.1
2880.46
2899.08
2919
2940.29
2963.01
2987.28
3013.09
3040.65
3070.21
3101.92
3136.45
3174.57
3217.75
3262.08
3198.01
2104.65
1192.52
971.31
961.667
959.329
956.963
954.561
952.228
949.978
947.807
945.711
943.688
941.732
939.838
938.003
936.222
934.494
932.816
931.184
929.596
928.051
926.547
925.082
923.654
922.262
920.904
919.579
918.287
917.025
915.794
914.593
913.421
912.278
911.164
910.079
909.021
907.993
906.992
906.021
905.079
904.166
903.278
902.412
901.563
900.731
899.927
899.165
898.472
897.856
897.29
896.704
895.911
894.552
891.921
886.607
876.255
857.428
826.011
778.461
713.886
636.197
554.733
481.861
427.657
395.377
381.335
376.839
375.946
375.784
375.833
375.941
376.044
376.072
376.047
375.962
375.81
375.619
375.428
375.261
375.127
375.016
374.917
374.818
374.713
374.602
374.487
374.375
374.269
374.172
374.081
373.994
373.909
373.825
373.741
373.653
2668.17
2669.26
2669.21
2670.22
2671.64
2673.37
2675.38
2677.7
2680.36
2683.33
2686.57
2690.07
2693.82
2697.84
2702.11
2706.58
2711.17
2715.77
2720.26
2724.54
2728.51
2732.09
2735.17
2737.67
2739.52
2740.73
2741.24
2741.21
2740.82
2739.95
2738.69
2737.17
2735.51
2733.73
2731.92
2730.21
2728.87
2728.13
2727.99
2728.52
2729.85
2732.26
2735.71
2740.13
2745.35
2751.3
2758.02
2765.59
2774.17
2783.79
2794.51
2806.29
2819.11
2832.95
2847.9
2863.98
2881.29
2899.87
2919.79
2941.11
2963.92
2988.28
3014.23
3042.02
3071.89
3104.03
3139.03
3178.14
3222.15
3265.92
3146.03
1959.53
1133.08
966.153
959.476
957.151
954.756
952.35
950.028
947.796
945.645
943.57
941.565
939.625
937.747
935.928
934.163
932.451
930.788
929.172
927.6
926.07
924.581
923.131
921.718
920.341
918.998
917.689
916.413
915.168
913.954
912.77
911.618
910.495
909.402
908.34
907.307
906.304
905.331
904.389
903.478
902.597
901.744
900.914
900.102
899.308
898.543
897.822
897.17
896.597
896.073
895.53
894.782
893.459
890.863
885.582
875.255
856.443
825.033
777.497
712.969
635.385
554.085
481.403
427.37
395.202
381.23
376.804
375.925
375.776
375.828
375.94
376.044
376.072
376.047
375.962
375.81
375.619
375.428
375.261
375.127
375.016
374.917
374.818
374.713
374.602
374.487
374.375
374.269
374.172
374.081
373.994
373.909
373.825
373.741
373.653
2670.04
2671.19
2672.15
2673
2674.33
2675.99
2678
2680.36
2683.04
2686.04
2689.31
2692.86
2696.65
2700.69
2704.96
2709.41
2713.97
2718.54
2723
2727.23
2731.15
2734.66
2737.67
2740.08
2741.86
2743.02
2743.49
2743.46
2743.06
2742.18
2740.9
2739.33
2737.53
2735.55
2733.52
2731.69
2730.36
2729.71
2729.66
2730.26
2731.68
2734.14
2737.6
2741.98
2747.15
2753.04
2759.71
2767.24
2775.77
2785.33
2795.98
2807.67
2820.39
2834.14
2848.99
2865
2882.25
2900.79
2920.68
2942.03
2964.89
2989.33
3015.5
3043.55
3073.77
3106.43
3142.21
3182.48
3227.42
3267.84
3058.76
1808.74
1079.11
961.84
957.135
954.825
952.421
950.032
947.734
945.526
943.397
941.342
939.355
937.433
935.573
933.771
932.024
930.328
928.681
927.08
925.523
924.009
922.535
921.099
919.701
918.339
917.011
915.717
914.457
913.228
912.032
910.867
909.733
908.632
907.561
906.523
905.515
904.54
903.596
902.684
901.805
900.957
900.138
899.344
898.569
897.814
897.087
896.406
895.795
895.263
894.78
894.276
893.569
892.283
889.716
884.461
874.148
855.334
823.911
776.367
711.868
634.385
553.264
480.805
426.982
394.956
381.059
376.74
375.883
375.759
375.817
375.936
376.044
376.072
376.047
375.962
375.81
375.619
375.428
375.261
375.127
375.016
374.917
374.818
374.713
374.602
374.487
374.375
374.269
374.172
374.081
373.994
373.909
373.825
373.741
373.653
2672.95
2673.62
2674.99
2675.83
2677.2
2678.89
2680.94
2683.33
2686.04
2689.07
2692.4
2695.99
2699.82
2703.87
2708.13
2712.57
2717.1
2721.63
2726.03
2730.21
2734.07
2737.51
2740.43
2742.75
2744.45
2745.54
2745.97
2745.93
2745.51
2744.59
2743.23
2741.53
2739.55
2737.39
2735.26
2733.43
2732.19
2731.67
2731.7
2732.38
2733.83
2736.31
2739.77
2744.14
2749.26
2755.09
2761.7
2769.17
2777.65
2787.11
2797.67
2809.23
2821.84
2835.46
2850.21
2866.12
2883.31
2901.79
2921.65
2943.05
2965.92
2990.51
3016.93
3045.25
3075.93
3109.19
3146
3187.5
3233.31
3267.98
2917.51
1653.47
1034.4
958.23
954.721
952.423
950.02
947.655
945.382
943.196
941.088
939.052
937.084
935.181
933.338
931.553
929.821
928.141
926.51
924.924
923.381
921.881
920.42
918.999
917.614
916.266
914.953
913.674
912.429
911.217
910.038
908.893
907.78
906.7
905.653
904.639
903.658
902.711
901.797
900.917
900.071
899.257
898.473
897.715
896.977
896.259
895.57
894.927
894.355
893.863
893.42
892.952
892.283
891.031
888.489
883.251
872.94
854.108
822.649
775.072
710.582
633.193
552.265
480.058
426.486
394.634
380.807
376.632
375.811
375.726
375.791
375.923
376.04
376.072
376.048
375.962
375.81
375.619
375.428
375.262
375.127
375.016
374.917
374.818
374.713
374.602
374.487
374.375
374.269
374.172
374.081
373.994
373.909
373.825
373.741
373.653
2676.06
2676.59
2678.02
2678.87
2680.32
2682.07
2684.16
2686.57
2689.31
2692.4
2695.78
2699.42
2703.28
2707.35
2711.61
2716.03
2720.52
2725
2729.33
2733.44
2737.23
2740.59
2743.41
2745.64
2747.25
2748.26
2748.63
2748.57
2748.1
2747.09
2745.62
2743.77
2741.64
2739.4
2737.28
2735.54
2734.43
2734.05
2734.16
2734.84
2736.27
2738.74
2742.2
2746.55
2751.63
2757.39
2763.93
2771.32
2779.69
2789.04
2799.47
2810.89
2823.37
2836.85
2851.5
2867.3
2884.43
2902.85
2922.71
2944.16
2967.07
2991.89
3018.5
3047.24
3078.36
3112.42
3150.36
3192.75
3239.87
3263.08
2708.75
1497.86
1001.16
955.122
952.271
949.971
947.575
945.232
942.983
940.818
938.729
936.712
934.762
932.875
931.049
929.279
927.563
925.898
924.28
922.707
921.178
919.691
918.243
916.835
915.464
914.129
912.83
911.567
910.338
909.143
907.983
906.857
905.766
904.709
903.688
902.7
901.748
900.83
899.947
899.099
898.286
897.507
896.758
896.036
895.334
894.653
894.001
893.395
892.86
892.406
892
891.567
890.931
889.71
887.19
881.961
871.639
852.769
821.249
773.611
709.107
631.803
551.081
479.157
425.876
394.236
380.468
376.46
375.704
375.67
375.746
375.896
376.029
376.069
376.047
375.963
375.811
375.62
375.428
375.262
375.127
375.016
374.917
374.818
374.713
374.602
374.487
374.375
374.269
374.172
374.081
373.994
373.909
373.825
373.741
373.653
2679.56
2679.85
2681.31
2682.22
2683.75
2685.53
2687.63
2690.07
2692.86
2695.99
2699.42
2703.1
2707
2711.09
2715.35
2719.75
2724.2
2728.61
2732.86
2736.89
2740.59
2743.86
2746.58
2748.71
2750.25
2751.15
2751.45
2751.35
2750.79
2749.67
2748.08
2746.11
2743.92
2741.7
2739.68
2738.07
2737.06
2736.78
2736.94
2737.59
2738.98
2741.37
2744.78
2749.11
2754.12
2759.79
2766.21
2773.48
2781.74
2790.98
2801.28
2812.55
2824.89
2838.23
2852.78
2868.49
2885.56
2903.93
2923.81
2945.31
2968.35
2993.41
3020.26
3049.53
3081.18
3116.15
3155.19
3198.83
3247.09
3245.94
2450.68
1351.46
977.679
952.312
949.79
947.475
945.087
942.767
940.539
938.394
936.324
934.324
932.391
930.52
928.709
926.954
925.252
923.6
921.995
920.436
918.919
917.444
916.01
914.614
913.256
911.936
910.652
909.404
908.193
907.017
905.876
904.772
903.704
902.672
901.677
900.718
899.795
898.908
898.057
897.242
896.463
895.718
895.004
894.317
893.651
893.005
892.388
891.819
891.319
890.9
890.53
890.128
889.524
888.33
885.826
880.596
870.25
851.322
819.714
771.984
707.441
630.21
549.707
478.095
425.143
393.764
380.054
376.178
375.571
375.583
375.675
375.849
376.005
376.06
376.043
375.963
375.812
375.62
375.428
375.262
375.127
375.016
374.917
374.818
374.713
374.602
374.487
374.375
374.269
374.172
374.081
373.994
373.909
373.825
373.741
373.653
2683.29
2683.4
2684.94
2685.92
2687.47
2689.25
2691.36
2693.82
2696.65
2699.82
2703.28
2707
2710.93
2715.05
2719.31
2723.68
2728.06
2732.38
2736.54
2740.48
2744.09
2747.26
2749.88
2751.91
2753.38
2754.17
2754.41
2754.25
2753.59
2752.38
2750.69
2748.67
2746.49
2744.37
2742.47
2740.97
2740
2739.73
2739.93
2740.51
2741.79
2744.07
2747.38
2751.62
2756.53
2762.07
2768.36
2775.52
2783.67
2792.8
2802.95
2814.08
2826.27
2839.5
2853.94
2869.58
2886.6
2904.96
2924.89
2946.45
2969.74
2995.03
3022.31
3052.13
3084.49
3120.38
3160.53
3205.85
3253.96
3204.88
2178.85
1225.43
962.364
949.638
947.275
944.935
942.558
940.26
938.053
935.927
933.874
931.891
929.974
928.119
926.322
924.581
922.892
921.253
919.661
918.114
916.61
915.147
913.725
912.343
910.999
909.694
908.426
907.196
906.002
904.847
903.728
902.648
901.604
900.599
899.632
898.702
897.81
896.955
896.137
895.355
894.61
893.899
893.22
892.567
891.935
891.324
890.741
890.205
889.739
889.354
889.016
888.643
888.066
886.896
884.403
879.165
868.779
849.771
818.046
770.193
705.582
628.412
548.138
476.87
424.284
393.212
379.583
375.779
375.388
375.451
375.577
375.776
375.959
376.038
376.03
375.96
375.812
375.621
375.429
375.262
375.127
375.017
374.917
374.818
374.713
374.602
374.487
374.375
374.269
374.172
374.081
373.994
373.909
373.825
373.741
373.653
2687.22
2687.3
2688.9
2689.88
2691.43
2693.21
2695.34
2697.84
2700.69
2703.87
2707.35
2711.09
2715.05
2719.18
2723.43
2727.75
2732.04
2736.27
2740.34
2744.18
2747.71
2750.77
2753.28
2755.23
2756.61
2757.31
2757.48
2757.26
2756.52
2755.23
2753.5
2751.48
2749.36
2747.34
2745.55
2744.1
2743.09
2742.71
2742.9
2743.42
2744.53
2746.66
2749.81
2753.91
2758.68
2764.11
2770.28
2777.32
2785.33
2794.32
2804.33
2815.35
2827.41
2840.55
2854.89
2870.49
2887.49
2905.87
2925.9
2947.56
2971.19
2996.75
3024.67
3055.02
3088.31
3125.14
3166.7
3213.53
3258.66
3114.33
1924.22
1116.54
953.48
947.011
944.715
942.352
939.989
937.713
935.526
933.418
931.383
929.417
927.515
925.675
923.892
922.165
920.489
918.863
917.283
915.748
914.257
912.807
911.398
910.03
908.701
907.412
906.162
904.95
903.778
902.644
901.549
900.493
899.477
898.5
897.562
896.663
895.803
894.98
894.195
893.446
892.735
892.058
891.412
890.792
890.193
889.614
889.064
888.561
888.127
887.772
887.464
887.118
886.566
885.415
882.927
877.671
867.23
848.12
816.247
768.236
703.527
626.405
546.372
475.481
423.298
392.57
379.073
375.317
375.107
375.246
375.447
375.675
375.889
375.998
376.004
375.948
375.81
375.622
375.43
375.263
375.128
375.017
374.917
374.818
374.713
374.602
374.487
374.375
374.269
374.172
374.081
373.994
373.909
373.825
373.741
373.653
2691.43
2691.47
2693.1
2694.07
2695.63
2697.43
2699.6
2702.11
2704.96
2708.13
2711.61
2715.35
2719.31
2723.43
2727.63
2731.87
2736.07
2740.19
2744.16
2747.92
2751.37
2754.33
2756.74
2758.62
2759.92
2760.54
2760.66
2760.4
2759.59
2758.24
2756.49
2754.5
2752.44
2750.48
2748.72
2747.23
2746.1
2745.54
2745.62
2746.05
2747.02
2748.98
2751.95
2755.89
2760.54
2765.85
2771.86
2778.74
2786.6
2795.47
2805.36
2816.28
2828.23
2841.3
2855.58
2871.17
2888.18
2906.66
2926.83
2948.73
2972.75
2998.65
3027.24
3058.22
3092.66
3130.53
3173.76
3222.09
3259.17
2936.09
1686.26
1037.64
948.205
944.385
942.108
939.73
937.385
935.131
932.964
930.874
928.855
926.905
925.019
923.193
921.424
919.71
918.048
916.434
914.867
913.345
911.867
910.431
909.036
907.683
906.371
905.099
903.868
902.677
901.527
900.417
899.347
898.319
897.331
896.383
895.476
894.608
893.78
892.99
892.237
891.522
890.844
890.199
889.586
888.998
888.431
887.882
887.362
886.89
886.485
886.159
885.878
885.557
885.027
883.892
881.403
876.119
865.609
846.371
814.319
766.114
701.276
624.187
544.406
473.931
422.189
391.83
378.531
374.859
374.71
374.929
375.253
375.546
375.79
375.932
375.96
375.922
375.801
375.621
375.431
375.264
375.129
375.017
374.917
374.818
374.713
374.602
374.487
374.375
374.269
374.172
374.081
373.994
373.909
373.825
373.741
373.653
2695.91
2695.81
2697.48
2698.47
2700.06
2701.9
2704.08
2706.58
2709.41
2712.57
2716.03
2719.75
2723.68
2727.75
2731.87
2736.02
2740.11
2744.13
2748.03
2751.7
2755.06
2757.92
2760.21
2762.02
2763.24
2763.81
2763.89
2763.59
2762.72
2761.33
2759.57
2757.59
2755.53
2753.54
2751.71
2750.08
2748.76
2747.96
2747.87
2748.26
2749.17
2750.93
2753.75
2757.51
2761.99
2767.14
2772.98
2779.73
2787.46
2796.25
2806.03
2816.87
2828.73
2841.77
2856.01
2871.65
2888.73
2907.39
2927.8
2950.01
2974.44
3000.83
3030.07
3061.87
3097.34
3136.65
3181.71
3231.58
3248.97
2645.89
1466.03
988.551
944.542
941.748
939.457
937.075
934.75
932.517
930.369
928.297
926.296
924.361
922.49
920.679
918.924
917.224
915.574
913.973
912.42
910.911
909.446
908.025
906.646
905.309
904.015
902.762
901.552
900.383
899.257
898.173
897.13
896.13
895.172
894.255
893.379
892.543
891.747
890.99
890.27
889.587
888.94
888.328
887.746
887.188
886.65
886.131
885.64
885.196
884.82
884.52
884.264
883.964
883.453
882.332
879.836
874.515
863.917
844.528
812.262
763.827
698.828
621.759
542.242
472.221
420.961
390.995
377.942
374.398
374.252
374.512
374.955
375.36
375.658
375.837
375.895
375.875
375.778
375.613
375.429
375.265
375.13
375.018
374.918
374.818
374.713
374.602
374.487
374.375
374.269
374.172
374.081
373.994
373.909
373.825
373.741
373.653
2700.54
2700.3
2702.02
2703.04
2704.66
2706.51
2708.68
2711.17
2713.97
2717.1
2720.52
2724.2
2728.06
2732.04
2736.07
2740.11
2744.11
2748.05
2751.88
2755.48
2758.74
2761.5
2763.69
2765.42
2766.56
2767.08
2767.12
2766.76
2765.82
2764.37
2762.56
2760.52
2758.38
2756.25
2754.25
2752.42
2750.89
2749.87
2749.62
2750.03
2750.92
2752.49
2755.1
2758.63
2762.94
2767.95
2773.68
2780.34
2787.99
2796.72
2806.41
2817.19
2828.98
2842.01
2856.27
2872.03
2889.23
2908.17
2928.86
2951.53
2976.4
3003.49
3033.29
3066.11
3102.77
3143.9
3190.56
3241.76
3212.11
2296.23
1278.51
960.397
941.524
939.093
936.769
934.391
932.088
929.877
927.748
925.693
923.709
921.79
919.934
918.137
916.396
914.709
913.073
911.486
909.945
908.451
907.001
905.595
904.233
902.914
901.639
900.408
899.22
898.076
896.975
895.918
894.904
893.934
893.006
892.12
891.276
890.473
889.709
888.983
888.295
887.644
887.028
886.446
885.894
885.365
884.856
884.364
883.899
883.482
883.133
882.859
882.625
882.345
881.85
880.738
878.23
872.862
862.16
842.592
810.079
761.374
696.182
619.121
539.881
470.356
419.613
390.079
377.297
373.905
373.766
374.039
374.558
375.08
375.472
375.711
375.803
375.802
375.735
375.592
375.421
375.263
375.13
375.02
374.919
374.819
374.714
374.602
374.487
374.375
374.269
374.172
374.081
373.994
373.909
373.825
373.741
373.653
2705.24
2704.91
2706.66
2707.69
2709.31
2711.15
2713.31
2715.77
2718.54
2721.63
2725
2728.61
2732.38
2736.27
2740.19
2744.13
2748.05
2751.91
2755.66
2759.18
2762.33
2764.97
2767.07
2768.72
2769.78
2770.24
2770.23
2769.77
2768.7
2767.12
2765.18
2763
2760.72
2758.42
2756.21
2754.17
2752.46
2751.31
2750.96
2751.32
2752.14
2753.54
2755.88
2759.25
2763.43
2768.36
2774.03
2780.65
2788.25
2796.93
2806.56
2817.3
2829.06
2842.14
2856.49
2872.43
2889.86
2909.12
2930.22
2953.4
2978.75
3006.6
3037.28
3071.26
3109.16
3152.23
3200.35
3248.06
3118.03
1962.76
1131.86
946.409
938.72
936.41
934.05
931.683
929.403
927.213
925.103
923.066
921.098
919.195
917.354
915.572
913.845
912.171
910.549
908.975
907.449
905.97
904.536
903.147
901.803
900.504
899.25
898.042
896.878
895.76
894.687
893.658
892.674
891.734
890.838
889.984
889.172
888.4
887.668
886.974
886.317
885.696
885.11
884.557
884.033
883.532
883.049
882.583
882.143
881.752
881.428
881.177
880.964
880.702
880.222
879.115
876.589
871.163
860.339
840.566
807.77
758.755
693.34
616.275
537.325
468.335
418.145
389.088
376.601
373.369
373.251
373.531
374.092
374.705
375.2
375.526
375.68
375.706
375.666
375.553
375.401
375.254
375.128
375.02
374.92
374.82
374.714
374.602
374.487
374.375
374.269
374.172
374.081
373.994
373.909
373.825
373.741
373.653
2709.91
2709.54
2711.27
2712.29
2713.89
2715.7
2717.83
2720.26
2723
2726.03
2729.33
2732.86
2736.54
2740.34
2744.16
2748.03
2751.88
2755.66
2759.32
2762.75
2765.77
2768.27
2770.29
2771.82
2772.75
2773.11
2773
2772.36
2771.1
2769.35
2767.24
2764.9
2762.44
2759.94
2757.54
2755.32
2753.46
2752.18
2751.72
2752.01
2752.78
2754.06
2756.16
2759.48
2763.59
2768.49
2774.14
2780.75
2788.32
2796.97
2806.57
2817.29
2829.09
2842.28
2856.8
2872.97
2890.68
2910.35
2931.88
2955.67
2981.64
3010.37
3041.98
3077.16
3116.79
3161.57
3212.03
3247.29
2901.84
1669.07
1029.88
939.82
935.974
933.689
931.306
928.956
926.699
924.529
922.438
920.418
918.467
916.58
914.754
912.986
911.273
909.614
908.005
906.447
904.936
903.472
902.055
900.685
899.361
898.084
896.853
895.669
894.531
893.441
892.396
891.398
890.444
889.535
888.671
887.849
887.068
886.328
885.627
884.964
884.337
883.745
883.188
882.663
882.166
881.69
881.233
880.791
880.376
880.008
879.708
879.479
879.286
879.04
878.571
877.467
874.917
869.422
858.458
838.451
805.335
755.971
690.299
613.219
534.574
466.151
416.565
388.023
375.864
372.789
372.7
372.992
373.582
374.257
374.838
375.256
375.5
375.581
375.57
375.491
375.363
375.233
375.119
375.018
374.921
374.822
374.716
374.603
374.488
374.375
374.269
374.172
374.081
373.994
373.909
373.825
373.741
373.653
2714.47
2714.08
2715.75
2716.73
2718.29
2720.06
2722.15
2724.54
2727.23
2730.21
2733.44
2736.89
2740.48
2744.18
2747.92
2751.7
2755.48
2759.18
2762.75
2766.06
2768.92
2771.24
2773.14
2774.52
2775.31
2775.52
2775.26
2774.39
2772.91
2770.99
2768.72
2766.19
2763.52
2760.79
2758.18
2755.79
2753.82
2752.47
2751.95
2752.19
2752.9
2754.12
2756.17
2759.38
2763.49
2768.4
2774.06
2780.66
2788.22
2796.86
2806.48
2817.24
2829.15
2842.5
2857.27
2873.72
2891.83
2911.93
2934.07
2958.45
2985.25
3014.78
3047.59
3083.96
3125.34
3172.3
3224.31
3229.53
2538.2
1408.11
973.535
935.935
933.239
930.932
928.541
926.212
923.978
921.828
919.755
917.753
915.819
913.947
912.136
910.383
908.685
907.04
905.446
903.903
902.408
900.962
899.564
898.214
896.911
895.657
894.451
893.293
892.184
891.122
890.107
889.139
888.217
887.34
886.507
885.717
884.968
884.259
883.588
882.954
882.356
881.793
881.263
880.765
880.293
879.843
879.409
878.991
878.598
878.253
877.975
877.767
877.593
877.361
876.902
875.796
873.217
867.641
856.518
836.249
802.773
753.018
687.057
609.949
531.629
463.802
414.881
386.896
375.088
372.17
372.11
372.42
373.039
373.757
374.402
374.899
375.235
375.406
375.44
375.401
375.306
375.194
375.097
375.009
374.919
374.823
374.717
374.605
374.489
374.375
374.269
374.172
374.081
373.994
373.909
373.825
373.741
373.653
2718.78
2718.39
2719.96
2720.9
2722.4
2724.13
2726.17
2728.51
2731.15
2734.07
2737.23
2740.59
2744.09
2747.71
2751.37
2755.06
2758.74
2762.33
2765.77
2768.92
2771.61
2773.76
2775.51
2776.73
2777.36
2777.43
2777.01
2775.91
2774.22
2772.07
2769.57
2766.8
2763.88
2760.93
2758.16
2755.68
2753.65
2752.28
2751.76
2751.97
2752.65
2753.88
2755.93
2759
2763.17
2768.1
2773.79
2780.39
2787.98
2796.67
2806.37
2817.24
2829.34
2842.9
2857.99
2874.78
2893.36
2913.99
2936.73
2961.87
2989.52
3020.11
3053.94
3092.07
3134.95
3184.77
3234.02
3164.22
2127.21
1205.75
945.877
932.878
930.5
928.145
925.759
923.455
921.243
919.113
917.058
915.074
913.155
911.299
909.504
907.765
906.082
904.452
902.875
901.348
899.871
898.444
897.066
895.737
894.458
893.229
892.049
890.919
889.839
888.807
887.823
886.887
885.996
885.151
884.35
883.591
882.872
882.194
881.552
880.947
880.377
879.841
879.338
878.865
878.418
877.991
877.58
877.184
876.813
876.491
876.234
876.046
875.888
875.669
875.219
874.107
871.492
865.824
854.52
833.957
800.082
749.893
683.61
606.461
528.489
461.29
413.099
385.719
374.277
371.514
371.479
371.813
372.462
373.218
373.912
374.471
374.882
375.146
375.264
375.274
375.223
375.138
375.058
374.987
374.911
374.821
374.718
374.606
374.49
374.376
374.27
374.172
374.081
373.994
373.909
373.825
373.741
373.653
2722.69
2722.3
2723.76
2724.67
2726.13
2727.8
2729.8
2732.09
2734.66
2737.51
2740.59
2743.86
2747.26
2750.77
2754.33
2757.92
2761.5
2764.97
2768.27
2771.24
2773.76
2775.8
2777.45
2778.52
2778.99
2778.89
2778.19
2776.79
2774.84
2772.45
2769.7
2766.71
2763.6
2760.47
2757.55
2754.98
2752.93
2751.6
2751.13
2751.34
2752.01
2753.29
2755.35
2758.39
2762.63
2767.62
2773.35
2779.99
2787.64
2796.44
2806.31
2817.33
2829.68
2843.53
2858.99
2876.22
2895.34
2916.58
2940.02
2965.93
2994.54
3026.19
3061.54
3101.18
3146.58
3197.37
3238.38
2977.83
1766.72
1058.37
934.976
930.035
927.731
925.338
922.966
920.685
918.495
916.385
914.348
912.381
910.479
908.639
906.859
905.136
903.469
901.855
900.294
898.785
897.327
895.92
894.564
893.259
892.005
890.802
889.651
888.55
887.5
886.499
885.547
884.642
883.783
882.97
882.199
881.471
880.783
880.133
879.521
878.944
878.401
877.891
877.413
876.964
876.541
876.137
875.748
875.374
875.024
874.723
874.487
874.317
874.174
873.968
873.523
872.402
869.743
863.97
852.464
831.575
797.258
746.591
679.954
602.759
525.155
458.627
411.223
384.494
373.437
370.827
370.813
371.169
371.849
372.641
373.378
373.986
374.458
374.798
375.007
375.097
375.101
375.061
375.002
374.948
374.889
374.813
374.717
374.607
374.492
374.378
374.271
374.172
374.081
373.994
373.909
373.825
373.741
373.653
2726.07
2725.71
2727.04
2727.93
2729.36
2731
2732.94
2735.17
2737.67
2740.43
2743.41
2746.58
2749.88
2753.28
2756.74
2760.21
2763.69
2767.07
2770.29
2773.14
2775.51
2777.45
2778.93
2779.78
2780.01
2779.69
2778.68
2777.01
2774.82
2772.2
2769.22
2765.96
2762.62
2759.31
2756.3
2753.73
2751.75
2750.53
2750.19
2750.4
2751.09
2752.44
2754.57
2757.67
2761.97
2767.01
2772.81
2779.53
2787.31
2796.28
2806.37
2817.63
2830.3
2844.49
2860.38
2878.12
2897.89
2919.78
2944.03
2970.77
3000.44
3033.27
3070.23
3111.91
3159.59
3211.94
3222.37
2604.92
1453.96