/*--------------------------------*- C++ -*----------------------------------*\
  =========                 |
  \\      /  F ield         | OpenFOAM: The Open Source CFD Toolbox
   \\    /   O peration     | Website:  https://openfoam.org
    \\  /    A nd           | Version:  13
     \\/     M anipulation  |
\*---------------------------------------------------------------------------*/
FoamFile
{
    format      ascii;
    class       volVectorField;
    location    "0.0016";
    object      U;
}
// * * * * * * * * * * * * * * * * * * * * * * * * * * * * * * * * * * * * * //

dimensions      [0 1 -1 0 0 0 0];

internalField   nonuniform List<vector> 
33334
(
(7.77925 7.77925 0)
(23.122 7.93571 0)
(38.6276 8.4755 0)
(53.707 9.0277 0)
(68.6181 9.42033 0)
(83.3936 9.63918 0)
(98.181 11.6762 0)
(113.37 14.0388 0)
(127.012 8.22158 0)
(137.866 1.93811 0)
(149.394 -1.76041 0)
(160.927 -4.22394 0)
(172.236 -5.99974 0)
(183.189 -7.262 0)
(193.747 -8.22949 0)
(203.824 -9.14222 0)
(213.327 -10.0862 0)
(222.236 -11.0017 0)
(230.508 -11.8789 0)
(238.042 -12.7851 0)
(244.74 -13.7116 0)
(250.539 -14.6929 0)
(255.479 -15.6763 0)
(259.662 -16.6039 0)
(263.185 -17.3773 0)
(266.38 -17.9733 0)
(269.306 -18.5225 0)
(272.067 -18.9665 0)
(274.786 -19.2516 0)
(277.5 -19.5846 0)
(280.285 -20.0453 0)
(283.153 -20.3723 0)
(286.006 -20.4741 0)
(288.758 -20.4219 0)
(291.364 -20.3428 0)
(293.886 -20.3242 0)
(296.315 -20.3536 0)
(298.558 -20.4334 0)
(300.472 -20.6392 0)
(302.013 -20.8995 0)
(303.119 -21.2589 0)
(303.802 -21.4637 0)
(304.082 -21.9666 0)
(304.322 -22.0746 0)
(304.634 -22.0879 0)
(305.383 -22.6885 0)
(306.935 -22.9263 0)
(309.204 -22.5549 0)
(312.325 -22.4998 0)
(316.584 -23.1156 0)
(322.28 -23.6064 0)
(329.581 -24.6507 0)
(338.728 -25.2883 0)
(349.79 -25.7995 0)
(362.852 -26.204 0)
(378.026 -26.8052 0)
(395.339 -27.5807 0)
(414.85 -28.1572 0)
(436.54 -28.8995 0)
(460.395 -29.4802 0)
(486.283 -30.1404 0)
(514.136 -31.1828 0)
(543.963 -31.3722 0)
(575.931 -31.3153 0)
(610.254 -31.0473 0)
(647.336 -29.4615 0)
(688.049 -27.9858 0)
(733.412 -25.2561 0)
(786.205 -21.016 0)
(851.486 -15.8101 0)
(925.451 -10.613 0)
(940.753 -4.82442 0)
(660.605 -0.345983 0)
(309.281 3.27765 0)
(250.744 3.84964 0)
(248.909 3.57781 0)
(247.817 3.24911 0)
(246.644 2.81903 0)
(245.453 2.28814 0)
(244.301 1.61309 0)
(243.147 0.754088 0)
(241.937 -0.339506 0)
(240.592 -1.61801 0)
(239.168 -2.57513 0)
(238.046 -2.58341 0)
(237.128 -2.52492 0)
(236.228 -2.4796 0)
(235.34 -2.43242 0)
(234.483 -2.3769 0)
(233.658 -2.31666 0)
(232.861 -2.25334 0)
(232.091 -2.18677 0)
(231.344 -2.12134 0)
(230.619 -2.05262 0)
(229.914 -1.98479 0)
(229.229 -1.91685 0)
(228.562 -1.8491 0)
(227.912 -1.7819 0)
(227.278 -1.7149 0)
(226.661 -1.64944 0)
(226.058 -1.58455 0)
(225.469 -1.52109 0)
(224.894 -1.45847 0)
(224.331 -1.39703 0)
(223.78 -1.33694 0)
(223.24 -1.27863 0)
(222.711 -1.2216 0)
(222.192 -1.1655 0)
(221.683 -1.11046 0)
(221.182 -1.05703 0)
(220.69 -1.00525 0)
(220.206 -0.954243 0)
(219.73 -0.904009 0)
(219.262 -0.854143 0)
(218.801 -0.805243 0)
(218.347 -0.756952 0)
(217.901 -0.709161 0)
(217.461 -0.65973 0)
(217.028 -0.60829 0)
(216.596 -0.557134 0)
(216.167 -0.50992 0)
(215.765 -0.457534 0)
(215.378 -0.408319 0)
(214.93 -0.35542 0)
(214.589 -0.329029 0)
(214.192 -0.294248 0)
(213.804 -0.269499 0)
(213.416 -0.252915 0)
(213.038 -0.233116 0)
(212.705 -0.198006 0)
(212.484 -0.141476 0)
(212.427 -0.0711676 0)
(212.385 -0.00730807 0)
(212.171 0.0229513 0)
(211.513 0.0252416 0)
(210.504 0.0164147 0)
(210.532 0.00522661 0)
(209.701 0.000807117 0)
(209.141 0.000409452 0)
(208.826 -0.00067668 0)
(208.48 -0.00139759 0)
(208.119 -0.00177902 0)
(207.776 -0.00193246 0)
(207.422 -0.00192774 0)
(207.076 -0.00185486 0)
(206.743 -0.00177246 0)
(206.417 -0.00169943 0)
(206.096 -0.00164032 0)
(205.778 -0.00159563 0)
(205.466 -0.00156552 0)
(205.158 -0.00154786 0)
(204.856 -0.00153856 0)
(204.558 -0.00153466 0)
(204.266 -0.00153457 0)
(203.979 -0.00153669 0)
(203.698 -0.00154056 0)
(203.419 -0.001546 0)
(203.139 -0.00155099 0)
(202.856 -0.00155222 0)
(202.572 -0.00154542 0)
(202.295 -0.00153088 0)
(202.032 -0.00151049 0)
(201.78 -0.00148596 0)
(201.536 -0.00146274 0)
(201.297 -0.00143704 0)
(201.061 -0.00140665 0)
(7.93571 23.122 0)
(22.6496 22.6496 0)
(37.9339 23.0015 0)
(52.8803 23.0165 0)
(67.7855 22.9691 0)
(82.3617 22.7258 0)
(96.953 22.1896 0)
(112.217 21.067 0)
(127.805 22.604 0)
(143.048 23.2316 0)
(156.965 23.1109 0)
(169.87 22.9679 0)
(182.07 22.8189 0)
(193.731 22.688 0)
(204.882 22.6463 0)
(215.483 22.5713 0)
(225.541 22.4384 0)
(235.139 22.2838 0)
(244.287 22.2026 0)
(252.902 22.1624 0)
(260.876 22.1293 0)
(268.116 22.0027 0)
(274.578 21.7519 0)
(280.273 21.3952 0)
(285.25 21.004 0)
(289.755 20.6163 0)
(293.802 20.1581 0)
(297.291 19.7129 0)
(300.393 19.4584 0)
(303.347 19.2986 0)
(306.211 19.228 0)
(308.95 19.2337 0)
(311.563 19.2145 0)
(314.076 19.117 0)
(316.478 18.9793 0)
(318.717 18.9878 0)
(320.898 19.2002 0)
(322.959 19.5286 0)
(325.007 19.8259 0)
(326.789 19.8262 0)
(328.34 19.7232 0)
(329.591 19.6263 0)
(330.553 19.4571 0)
(331.272 19.3994 0)
(332.095 19.2879 0)
(333.278 19.2395 0)
(334.882 19.319 0)
(337.318 19.4972 0)
(340.925 19.5408 0)
(345.747 19.5668 0)
(351.883 19.6275 0)
(359.555 19.8789 0)
(368.86 20.1651 0)
(380.133 20.4696 0)
(393.548 20.6003 0)
(409.243 20.6862 0)
(427.122 20.7154 0)
(447.237 20.7256 0)
(469.613 20.7399 0)
(494.16 20.7521 0)
(520.786 20.5595 0)
(549.34 20.4078 0)
(579.669 20.2368 0)
(612.05 20.0367 0)
(646.515 20.0679 0)
(682.819 19.5852 0)
(721.606 19.9018 0)
(763.834 20.7954 0)
(811.978 22.3738 0)
(870.891 24.4867 0)
(937.789 22.677 0)
(950.379 16.7007 0)
(670.915 11.4841 0)
(313.033 8.20073 0)
(250.934 7.65236 0)
(248.983 7.40842 0)
(247.836 7.13014 0)
(246.536 6.76915 0)
(245.206 6.3267 0)
(243.92 5.85573 0)
(242.709 5.46253 0)
(241.618 5.31114 0)
(240.796 5.54801 0)
(240.162 6.00111 0)
(239.332 5.90987 0)
(238.352 5.78209 0)
(237.432 5.6533 0)
(236.566 5.52584 0)
(235.726 5.39992 0)
(234.908 5.27614 0)
(234.112 5.15395 0)
(233.338 5.0333 0)
(232.585 4.91455 0)
(231.851 4.7974 0)
(231.135 4.68182 0)
(230.437 4.5679 0)
(229.756 4.45572 0)
(229.091 4.345 0)
(228.441 4.23574 0)
(227.806 4.12815 0)
(227.185 4.02203 0)
(226.577 3.91725 0)
(225.982 3.81376 0)
(225.4 3.71158 0)
(224.829 3.6105 0)
(224.269 3.51031 0)
(223.72 3.41076 0)
(223.181 3.31165 0)
(222.65 3.21264 0)
(222.129 3.11335 0)
(221.617 3.01347 0)
(221.112 2.91259 0)
(220.615 2.81028 0)
(220.125 2.70586 0)
(219.643 2.59873 0)
(219.168 2.48821 0)
(218.699 2.3743 0)
(218.236 2.25671 0)
(217.779 2.13435 0)
(217.322 2.00839 0)
(216.864 1.87695 0)
(216.425 1.7257 0)
(215.987 1.56312 0)
(215.509 1.40462 0)
(215.12 1.27944 0)
(214.676 1.1046 0)
(214.225 0.922802 0)
(213.764 0.742572 0)
(213.305 0.56612 0)
(212.892 0.402488 0)
(212.601 0.257829 0)
(212.487 0.139142 0)
(212.413 0.0526765 0)
(212.193 0.0112072 0)
(211.542 0.00106211 0)
(210.545 0.0023115 0)
(210.588 0.000915114 0)
(209.767 0.000268631 0)
(209.209 0.000282269 0)
(208.895 -0.000187359 0)
(208.55 -0.000962758 0)
(208.188 -0.00168079 0)
(207.843 -0.00206008 0)
(207.486 -0.0021292 0)
(207.138 -0.00205607 0)
(206.803 -0.00194648 0)
(206.475 -0.0018413 0)
(206.151 -0.00175546 0)
(205.832 -0.00169892 0)
(205.518 -0.00166347 0)
(205.208 -0.00163818 0)
(204.904 -0.00161744 0)
(204.604 -0.00160168 0)
(204.31 -0.00159067 0)
(204.022 -0.00158286 0)
(203.739 -0.00157715 0)
(203.459 -0.00157267 0)
(203.177 -0.00156491 0)
(202.891 -0.00154991 0)
(202.606 -0.00153424 0)
(202.327 -0.00152897 0)
(202.062 -0.00152437 0)
(201.809 -0.00151982 0)
(201.563 -0.00151575 0)
(201.321 -0.00150986 0)
(201.084 -0.00150352 0)
(8.4755 38.6276 0)
(23.0015 37.9339 0)
(38.443 38.443 0)
(53.4473 38.4707 0)
(68.3633 38.346 0)
(83.0705 38.203 0)
(97.1311 37.3376 0)
(110.23 35.8855 0)
(123.432 36.6668 0)
(137.235 37.225 0)
(150.532 37.2723 0)
(163.195 37.1613 0)
(175.361 37.067 0)
(187.068 36.9196 0)
(198.25 36.7093 0)
(208.849 36.5568 0)
(218.886 36.3772 0)
(228.413 36.1512 0)
(237.433 36.006 0)
(245.882 35.9262 0)
(253.683 35.8763 0)
(260.767 35.7484 0)
(267.088 35.521 0)
(272.642 35.1931 0)
(277.485 34.8479 0)
(281.896 34.5628 0)
(285.729 34.3397 0)
(288.993 34.1979 0)
(291.945 34.1033 0)
(294.739 34.0028 0)
(297.353 33.9772 0)
(299.787 33.9995 0)
(302.115 33.9663 0)
(304.42 33.8668 0)
(306.817 33.7562 0)
(309.419 33.7431 0)
(312.047 33.7983 0)
(314.592 33.8229 0)
(316.877 33.9198 0)
(318.654 33.8387 0)
(320.139 33.7259 0)
(321.314 33.6371 0)
(322.24 33.5903 0)
(322.987 33.6245 0)
(323.836 33.5166 0)
(324.974 33.6811 0)
(326.634 33.9304 0)
(329.183 34.0869 0)
(332.761 34.0358 0)
(337.395 34.1426 0)
(343.294 34.2412 0)
(350.707 34.7425 0)
(359.901 35.2121 0)
(371.164 35.6602 0)
(384.626 35.7985 0)
(400.322 35.9343 0)
(418.19 36.0264 0)
(438.285 36.0458 0)
(460.594 36.1513 0)
(485.001 36.3188 0)
(511.351 36.2594 0)
(539.495 36.4029 0)
(569.384 36.502 0)
(601.192 36.3202 0)
(635.1 36.8642 0)
(671.374 37.2262 0)
(711.099 38.9246 0)
(755.795 40.8388 0)
(807.133 42.0432 0)
(869.087 43.5011 0)
(938.097 44.3328 0)
(944.758 40.2497 0)
(656.626 27.9944 0)
(306.51 14.1037 0)
(250.277 11.8559 0)
(248.404 11.4299 0)
(247.193 11.0536 0)
(245.863 10.6785 0)
(244.54 10.3453 0)
(243.3 10.1171 0)
(242.165 10.0294 0)
(241.132 10.0956 0)
(240.162 10.2515 0)
(239.202 10.2446 0)
(238.247 10.0629 0)
(237.311 9.85715 0)
(236.413 9.66459 0)
(235.549 9.47735 0)
(234.715 9.28996 0)
(233.907 9.1033 0)
(233.125 8.91738 0)
(232.366 8.73246 0)
(231.63 8.54905 0)
(230.914 8.36686 0)
(230.217 8.18578 0)
(229.538 8.00615 0)
(228.877 7.82811 0)
(228.232 7.65131 0)
(227.603 7.47583 0)
(226.989 7.30199 0)
(226.389 7.12963 0)
(225.803 6.95854 0)
(225.23 6.7887 0)
(224.668 6.6201 0)
(224.118 6.45252 0)
(223.578 6.28562 0)
(223.049 6.1191 0)
(222.529 5.95262 0)
(222.018 5.78566 0)
(221.515 5.61769 0)
(221.02 5.44823 0)
(220.533 5.27666 0)
(220.052 5.10224 0)
(219.579 4.92403 0)
(219.113 4.74124 0)
(218.653 4.55281 0)
(218.2 4.35861 0)
(217.753 4.15866 0)
(217.314 3.95035 0)
(216.875 3.73757 0)
(216.432 3.51783 0)
(216.013 3.26518 0)
(215.59 2.99432 0)
(215.124 2.72658 0)
(214.749 2.50977 0)
(214.331 2.21554 0)
(213.903 1.90033 0)
(213.468 1.5779 0)
(213.044 1.25168 0)
(212.677 0.928245 0)
(212.442 0.625225 0)
(212.386 0.367212 0)
(212.36 0.17804 0)
(212.168 0.0657462 0)
(211.537 0.0146386 0)
(210.55 -0.0013088 0)
(210.591 -0.00443154 0)
(209.768 -0.00292994 0)
(209.209 -0.00271647 0)
(208.895 -0.00235342 0)
(208.549 -0.00221107 0)
(208.187 -0.00214048 0)
(207.842 -0.00211516 0)
(207.485 -0.00209146 0)
(207.137 -0.002006 0)
(206.802 -0.00191788 0)
(206.474 -0.00184173 0)
(206.151 -0.00178406 0)
(205.831 -0.00173425 0)
(205.517 -0.00168875 0)
(205.208 -0.00164981 0)
(204.904 -0.00161822 0)
(204.604 -0.00159113 0)
(204.309 -0.00156953 0)
(204.021 -0.00155267 0)
(203.738 -0.00153966 0)
(203.458 -0.00152879 0)
(203.176 -0.00151751 0)
(202.891 -0.00150617 0)
(202.605 -0.00149728 0)
(202.327 -0.00148502 0)
(202.061 -0.00147432 0)
(201.808 -0.00146599 0)
(201.563 -0.0014594 0)
(201.321 -0.00145122 0)
(201.083 -0.00144355 0)
(9.0277 53.707 0)
(23.0165 52.8803 0)
(38.4707 53.4473 0)
(53.483 53.483 0)
(68.4513 53.2227 0)
(83.2232 52.9783 0)
(97.4591 52.1841 0)
(110.816 51.3222 0)
(123.916 51.8328 0)
(137.119 52.3249 0)
(150.008 52.42 0)
(162.498 52.3954 0)
(174.582 52.3228 0)
(186.167 52.1175 0)
(197.192 51.8377 0)
(207.685 51.6448 0)
(217.679 51.4275 0)
(227.181 51.1366 0)
(236.164 50.9152 0)
(244.56 50.7473 0)
(252.297 50.5929 0)
(259.303 50.3424 0)
(265.518 50.0124 0)
(270.918 49.5973 0)
(275.553 49.156 0)
(279.714 48.8041 0)
(283.296 48.5323 0)
(286.378 48.3121 0)
(289.171 48.1134 0)
(291.8 47.9542 0)
(294.286 47.9443 0)
(296.725 48.0262 0)
(299.243 48.0771 0)
(301.917 48.1009 0)
(304.839 48.1403 0)
(307.84 48.1925 0)
(310.688 48.2311 0)
(313.11 48.1116 0)
(315.179 48.074 0)
(316.719 47.8309 0)
(318.085 47.6161 0)
(319.208 47.4461 0)
(320.13 47.3988 0)
(320.892 47.4166 0)
(321.731 47.3124 0)
(322.816 47.6175 0)
(324.493 47.8703 0)
(327 47.9538 0)
(330.371 47.9449 0)
(334.716 48.2167 0)
(340.358 48.4562 0)
(347.592 49.1187 0)
(356.761 49.6184 0)
(368.085 50.0973 0)
(381.622 50.2435 0)
(397.355 50.4652 0)
(415.238 50.6105 0)
(435.341 50.6289 0)
(457.657 50.7886 0)
(482.092 51.0159 0)
(508.511 51.06 0)
(536.82 51.3411 0)
(567.1 51.7261 0)
(599.425 51.8642 0)
(634.233 52.7925 0)
(671.983 53.4414 0)
(713.367 54.5567 0)
(759.615 55.8026 0)
(811.705 56.5983 0)
(873.961 58.1553 0)
(943.784 60.1493 0)
(939.148 55.5424 0)
(636.325 37.191 0)
(297.288 18.8764 0)
(249.679 16.4215 0)
(247.99 16.0258 0)
(246.805 15.7251 0)
(245.536 15.4709 0)
(244.297 15.2899 0)
(243.148 15.1952 0)
(242.079 15.1459 0)
(241.064 15.0577 0)
(240.074 14.8439 0)
(239.087 14.555 0)
(238.121 14.2679 0)
(237.192 13.989 0)
(236.298 13.7162 0)
(235.434 13.4461 0)
(234.598 13.1774 0)
(233.789 12.9115 0)
(233.005 12.6477 0)
(232.244 12.3862 0)
(231.505 12.1275 0)
(230.787 11.8711 0)
(230.088 11.6172 0)
(229.407 11.3658 0)
(228.744 11.1173 0)
(228.097 10.8712 0)
(227.466 10.6275 0)
(226.85 10.3865 0)
(226.248 10.1481 0)
(225.66 9.91185 0)
(225.085 9.67763 0)
(224.521 9.44539 0)
(223.969 9.21468 0)
(223.427 8.98492 0)
(222.894 8.75552 0)
(222.371 8.52596 0)
(221.856 8.29552 0)
(221.349 8.06335 0)
(220.848 7.82857 0)
(220.355 7.59031 0)
(219.867 7.34753 0)
(219.386 7.09897 0)
(218.91 6.84375 0)
(218.441 6.58022 0)
(217.977 6.30785 0)
(217.517 6.02755 0)
(217.066 5.73434 0)
(216.614 5.43524 0)
(216.151 5.12746 0)
(215.719 4.77187 0)
(215.275 4.40519 0)
(214.778 4.04666 0)
(214.394 3.72892 0)
(213.981 3.33806 0)
(213.555 2.91237 0)
(213.126 2.46896 0)
(212.717 2.00937 0)
(212.375 1.54021 0)
(212.18 1.08619 0)
(212.18 0.686581 0)
(212.218 0.377944 0)
(212.086 0.178315 0)
(211.498 0.0688329 0)
(210.535 0.0168735 0)
(210.588 9.97746e-05 0)
(209.768 -0.00339536 0)
(209.209 -0.00344767 0)
(208.894 -0.00330698 0)
(208.548 -0.00298921 0)
(208.186 -0.00254584 0)
(207.841 -0.00229149 0)
(207.485 -0.00215764 0)
(207.137 -0.00204102 0)
(206.801 -0.00194696 0)
(206.474 -0.0018771 0)
(206.15 -0.00182224 0)
(205.831 -0.00176841 0)
(205.516 -0.00171645 0)
(205.207 -0.00167048 0)
(204.903 -0.0016318 0)
(204.603 -0.00160012 0)
(204.309 -0.00157325 0)
(204.021 -0.00155192 0)
(203.738 -0.00153448 0)
(203.458 -0.00151794 0)
(203.176 -0.0015031 0)
(202.89 -0.00149208 0)
(202.605 -0.00148173 0)
(202.326 -0.00147116 0)
(202.061 -0.00146008 0)
(201.808 -0.00145038 0)
(201.562 -0.00144226 0)
(201.321 -0.00143326 0)
(201.083 -0.00142582 0)
(9.42033 68.6181 0)
(22.9691 67.7855 0)
(38.346 68.3633 0)
(53.2227 68.4513 0)
(68.1163 68.1163 0)
(82.7836 67.7736 0)
(97.0676 67.3071 0)
(110.742 66.7824 0)
(123.997 66.7226 0)
(137.101 66.881 0)
(149.957 66.8815 0)
(162.463 66.8429 0)
(174.542 66.7234 0)
(186.104 66.4483 0)
(197.136 66.1022 0)
(207.677 65.8554 0)
(217.74 65.5844 0)
(227.311 65.2239 0)
(236.347 64.928 0)
(244.787 64.6748 0)
(252.552 64.4356 0)
(259.557 64.1057 0)
(265.733 63.7547 0)
(271.052 63.3664 0)
(275.591 62.9508 0)
(279.648 62.6433 0)
(283.12 62.3994 0)
(286.101 62.1636 0)
(288.811 61.9386 0)
(291.374 61.7698 0)
(293.907 61.7372 0)
(296.536 61.7827 0)
(299.345 61.8057 0)
(302.351 61.8685 0)
(305.546 61.9525 0)
(308.647 62.0365 0)
(311.43 62.0743 0)
(313.664 61.8296 0)
(315.657 61.6265 0)
(317.149 61.241 0)
(318.536 60.968 0)
(319.672 60.7628 0)
(320.585 60.7403 0)
(321.314 60.7752 0)
(322.093 60.7356 0)
(323.107 61.1299 0)
(324.764 61.3612 0)
(327.182 61.5165 0)
(330.392 61.6936 0)
(334.595 62.1387 0)
(340.154 62.4714 0)
(347.357 63.1986 0)
(356.574 63.6663 0)
(367.925 64.1618 0)
(381.461 64.3381 0)
(397.164 64.6671 0)
(415.02 64.8811 0)
(435.101 64.9156 0)
(457.406 65.1138 0)
(481.871 65.3237 0)
(508.4 65.3897 0)
(536.905 65.5797 0)
(567.561 66.0237 0)
(600.387 66.3606 0)
(635.784 67.2261 0)
(674.108 68.0794 0)
(715.57 69.1713 0)
(761.516 70.6923 0)
(814.117 72.2421 0)
(876.988 75.253 0)
(946.867 78.525 0)
(930.213 70.9333 0)
(607.469 45.9565 0)
(287.032 23.5952 0)
(249.269 21.1787 0)
(247.759 20.8407 0)
(246.618 20.5821 0)
(245.391 20.3456 0)
(244.186 20.128 0)
(243.046 19.9058 0)
(241.955 19.6366 0)
(240.896 19.3002 0)
(239.865 18.9231 0)
(238.865 18.5568 0)
(237.904 18.2062 0)
(236.979 17.8627 0)
(236.085 17.5235 0)
(235.221 17.1882 0)
(234.386 16.8564 0)
(233.578 16.5292 0)
(232.794 16.2058 0)
(232.035 15.8863 0)
(231.298 15.571 0)
(230.581 15.2597 0)
(229.883 14.9522 0)
(229.204 14.6488 0)
(228.542 14.3496 0)
(227.897 14.054 0)
(227.267 13.7621 0)
(226.653 13.4739 0)
(226.052 13.1892 0)
(225.465 12.9072 0)
(224.89 12.6277 0)
(224.327 12.3504 0)
(223.774 12.0746 0)
(223.231 11.7991 0)
(222.697 11.5233 0)
(222.171 11.2463 0)
(221.653 10.967 0)
(221.141 10.6842 0)
(220.635 10.3967 0)
(220.134 10.1034 0)
(219.639 9.80304 0)
(219.149 9.49403 0)
(218.663 9.17562 0)
(218.183 8.84563 0)
(217.708 8.5032 0)
(217.235 8.15086 0)
(216.771 7.78071 0)
(216.307 7.40304 0)
(215.825 7.01426 0)
(215.382 6.56531 0)
(214.912 6.11355 0)
(214.4 5.66909 0)
(213.999 5.25514 0)
(213.582 4.771 0)
(213.153 4.23094 0)
(212.724 3.65341 0)
(212.319 3.04188 0)
(211.99 2.4059 0)
(211.822 1.77554 0)
(211.867 1.19817 0)
(211.971 0.722681 0)
(211.914 0.386534 0)
(211.396 0.175606 0)
(210.485 0.0641805 0)
(210.57 0.0156471 0)
(209.767 -0.00141508 0)
(209.208 -0.00286217 0)
(208.894 -0.00353462 0)
(208.548 -0.00348852 0)
(208.186 -0.00304242 0)
(207.841 -0.00260736 0)
(207.484 -0.00232142 0)
(207.136 -0.00213541 0)
(206.801 -0.00201255 0)
(206.474 -0.00193188 0)
(206.15 -0.00186854 0)
(205.831 -0.00180894 0)
(205.516 -0.0017523 0)
(205.207 -0.00170098 0)
(204.903 -0.00165645 0)
(204.603 -0.00161861 0)
(204.309 -0.00158636 0)
(204.021 -0.00155841 0)
(203.738 -0.00153442 0)
(203.457 -0.00151517 0)
(203.175 -0.00150039 0)
(202.89 -0.00148791 0)
(202.605 -0.00147618 0)
(202.326 -0.00146532 0)
(202.061 -0.00145429 0)
(201.808 -0.00144519 0)
(201.562 -0.00143735 0)
(201.32 -0.00142888 0)
(201.083 -0.0014213 0)
(9.63918 83.3936 0)
(22.7258 82.3617 0)
(38.203 83.0705 0)
(52.9783 83.2232 0)
(67.7736 82.7836 0)
(82.3854 82.3854 0)
(96.7122 82.0653 0)
(110.57 81.663 0)
(123.936 81.3717 0)
(137.01 81.3284 0)
(149.8 81.237 0)
(162.218 81.1131 0)
(174.194 80.9068 0)
(185.684 80.5853 0)
(196.688 80.2081 0)
(207.218 79.9241 0)
(217.275 79.6053 0)
(226.836 79.1952 0)
(235.86 78.8486 0)
(244.291 78.5295 0)
(252.047 78.2379 0)
(259.034 77.8663 0)
(265.186 77.5257 0)
(270.474 77.1824 0)
(275.02 76.7908 0)
(279.1 76.5065 0)
(282.624 76.2616 0)
(285.67 75.9868 0)
(288.475 75.7398 0)
(291.145 75.5619 0)
(293.819 75.5173 0)
(296.594 75.5941 0)
(299.532 75.6977 0)
(302.625 75.8735 0)
(305.759 75.9786 0)
(308.722 75.9535 0)
(311.291 75.8108 0)
(313.355 75.3569 0)
(315.352 74.9994 0)
(316.947 74.5376 0)
(318.458 74.2844 0)
(319.699 74.0845 0)
(320.689 74.086 0)
(321.467 74.126 0)
(322.271 74.1414 0)
(323.313 74.5689 0)
(325.014 74.7755 0)
(327.434 75.053 0)
(330.656 75.381 0)
(334.908 75.9177 0)
(340.519 76.2901 0)
(347.776 77.008 0)
(357.049 77.4142 0)
(368.4 77.9614 0)
(381.916 78.1836 0)
(397.604 78.6022 0)
(415.475 78.8599 0)
(435.586 78.8936 0)
(457.918 79.0952 0)
(482.424 79.2548 0)
(509.02 79.3419 0)
(537.616 79.4575 0)
(568.477 79.9606 0)
(601.69 80.5721 0)
(637.543 81.4233 0)
(676.467 82.4171 0)
(718.761 83.5095 0)
(765.666 85.0459 0)
(819.189 87.3623 0)
(884.514 90.6685 0)
(953.952 95.3036 0)
(915.936 83.6191 0)
(572.938 52.6382 0)
(276.813 28.1537 0)
(248.857 26.026 0)
(247.487 25.6708 0)
(246.352 25.3498 0)
(245.121 25.0018 0)
(243.906 24.6263 0)
(242.749 24.2205 0)
(241.638 23.7868 0)
(240.565 23.3452 0)
(239.532 22.9161 0)
(238.54 22.5031 0)
(237.585 22.1001 0)
(236.664 21.7031 0)
(235.774 21.3122 0)
(234.913 20.9273 0)
(234.082 20.548 0)
(233.277 20.1751 0)
(232.497 19.8075 0)
(231.741 19.4456 0)
(231.008 19.0893 0)
(230.294 18.7385 0)
(229.6 18.3929 0)
(228.924 18.0526 0)
(228.266 17.7175 0)
(227.623 17.387 0)
(226.997 17.0609 0)
(226.385 16.739 0)
(225.786 16.4207 0)
(225.201 16.1051 0)
(224.627 15.7915 0)
(224.063 15.4794 0)
(223.51 15.1675 0)
(222.965 14.8546 0)
(222.428 14.5394 0)
(221.898 14.2209 0)
(221.374 13.8975 0)
(220.855 13.5678 0)
(220.341 13.2303 0)
(219.831 12.8837 0)
(219.325 12.5266 0)
(218.823 12.1572 0)
(218.325 11.7749 0)
(217.83 11.3771 0)
(217.341 10.9627 0)
(216.85 10.5358 0)
(216.37 10.0863 0)
(215.889 9.62754 0)
(215.388 9.15293 0)
(214.932 8.61362 0)
(214.429 8.07364 0)
(213.904 7.53578 0)
(213.48 7.02127 0)
(213.057 6.44288 0)
(212.624 5.78907 0)
(212.194 5.07553 0)
(211.795 4.30626 0)
(211.484 3.49186 0)
(211.349 2.66801 0)
(211.445 1.89255 0)
(211.616 1.22835 0)
(211.642 0.729016 0)
(211.212 0.379238 0)
(210.376 0.175357 0)
(210.518 0.0600245 0)
(209.757 0.00877798 0)
(209.204 0.00297825 0)
(208.893 -0.00219634 0)
(208.548 -0.00350038 0)
(208.186 -0.00350812 0)
(207.841 -0.00300158 0)
(207.484 -0.00257549 0)
(207.136 -0.00228583 0)
(206.801 -0.00209356 0)
(206.473 -0.00197884 0)
(206.15 -0.00190389 0)
(205.83 -0.0018432 0)
(205.516 -0.00178732 0)
(205.207 -0.00173466 0)
(204.903 -0.00168639 0)
(204.603 -0.00164333 0)
(204.309 -0.00160559 0)
(204.021 -0.00157288 0)
(203.738 -0.00154587 0)
(203.457 -0.00152367 0)
(203.175 -0.0015038 0)
(202.89 -0.00148654 0)
(202.604 -0.00147195 0)
(202.326 -0.00145883 0)
(202.061 -0.00144626 0)
(201.808 -0.00143536 0)
(201.562 -0.00142469 0)
(201.32 -0.00141412 0)
(201.083 -0.00140504 0)
(11.6762 98.181 0)
(22.1896 96.953 0)
(37.3376 97.1311 0)
(52.1841 97.4591 0)
(67.3071 97.0676 0)
(82.0653 96.7122 0)
(96.3949 96.3949 0)
(110.282 96.0378 0)
(123.73 95.6699 0)
(136.835 95.4881 0)
(149.6 95.271 0)
(161.954 95.028 0)
(173.871 94.7386 0)
(185.334 94.3893 0)
(196.328 93.9967 0)
(206.847 93.6763 0)
(216.893 93.3124 0)
(226.449 92.8668 0)
(235.477 92.4867 0)
(243.924 92.1164 0)
(251.704 91.8003 0)
(258.712 91.4169 0)
(264.88 91.1006 0)
(270.165 90.8149 0)
(274.741 90.4624 0)
(278.833 90.2082 0)
(282.39 89.9953 0)
(285.49 89.7354 0)
(288.386 89.5371 0)
(291.175 89.4189 0)
(293.991 89.4333 0)
(296.909 89.5876 0)
(299.964 89.7346 0)
(303.101 89.8955 0)
(306.155 89.8481 0)
(308.954 89.5618 0)
(311.378 89.1652 0)
(313.411 88.5359 0)
(315.553 88.1148 0)
(317.316 87.6515 0)
(318.959 87.4719 0)
(320.279 87.3001 0)
(321.304 87.3325 0)
(322.09 87.3885 0)
(322.904 87.4565 0)
(323.977 87.9048 0)
(325.711 88.1065 0)
(328.131 88.5127 0)
(331.385 88.9311 0)
(335.678 89.5367 0)
(341.304 89.9405 0)
(348.566 90.6305 0)
(357.834 90.989 0)
(369.16 91.5872 0)
(382.665 91.8224 0)
(398.367 92.282 0)
(416.294 92.5474 0)
(436.48 92.5725 0)
(458.897 92.7573 0)
(483.534 92.8537 0)
(510.286 92.9483 0)
(539.151 92.9898 0)
(570.35 93.4892 0)
(603.965 94.1686 0)
(640.244 94.9214 0)
(679.622 95.9905 0)
(722.41 97.4749 0)
(770.103 99.5864 0)
(825.263 102.8 0)
(891.222 107.826 0)
(960.888 111.405 0)
(896.522 96.2938 0)
(529.908 57.5834 0)
(267.615 32.516 0)
(248.41 30.7279 0)
(247.141 30.2833 0)
(245.989 29.8452 0)
(244.741 29.3645 0)
(243.517 28.8661 0)
(242.353 28.3666 0)
(241.241 27.875 0)
(240.173 27.3993 0)
(239.149 26.9386 0)
(238.164 26.4885 0)
(237.215 26.0472 0)
(236.299 25.6133 0)
(235.414 25.1876 0)
(234.559 24.7695 0)
(233.733 24.3584 0)
(232.933 23.955 0)
(232.159 23.5582 0)
(231.408 23.1682 0)
(230.679 22.7848 0)
(229.97 22.4079 0)
(229.28 22.0369 0)
(228.608 21.6717 0)
(227.954 21.3122 0)
(227.315 20.9573 0)
(226.691 20.6067 0)
(226.082 20.2599 0)
(225.485 19.9159 0)
(224.9 19.5735 0)
(224.326 19.2317 0)
(223.761 18.8895 0)
(223.205 18.5455 0)
(222.656 18.1978 0)
(222.114 17.8451 0)
(221.577 17.4859 0)
(221.045 17.1184 0)
(220.516 16.741 0)
(219.991 16.3521 0)
(219.469 15.9502 0)
(218.948 15.5341 0)
(218.431 15.1015 0)
(217.916 14.6525 0)
(217.403 14.184 0)
(216.897 13.6949 0)
(216.386 13.1908 0)
(215.888 12.6605 0)
(215.385 12.1196 0)
(214.868 11.5553 0)
(214.392 10.9306 0)
(213.86 10.3019 0)
(213.318 9.66566 0)
(212.868 9.04535 0)
(212.435 8.37033 0)
(211.995 7.60314 0)
(211.56 6.75156 0)
(211.163 5.81695 0)
(210.866 4.80876 0)
(210.76 3.76779 0)
(210.905 2.76535 0)
(211.146 1.88576 0)
(211.259 1.20083 0)
(210.931 0.686769 0)
(210.18 0.377128 0)
(210.402 0.155616 0)
(209.73 0.0378219 0)
(209.188 0.0221808 0)
(208.886 0.00462621 0)
(208.547 -0.00203347 0)
(208.187 -0.00357303 0)
(207.842 -0.00351233 0)
(207.485 -0.0029201 0)
(207.137 -0.00248553 0)
(206.801 -0.00222234 0)
(206.473 -0.00206372 0)
(206.15 -0.00196302 0)
(205.83 -0.00189257 0)
(205.516 -0.00183263 0)
(205.207 -0.00177537 0)
(204.903 -0.00172091 0)
(204.603 -0.00167106 0)
(204.309 -0.00162706 0)
(204.021 -0.00158918 0)
(203.738 -0.00155675 0)
(203.457 -0.00152857 0)
(203.175 -0.00150472 0)
(202.89 -0.0014843 0)
(202.604 -0.00146609 0)
(202.326 -0.00144995 0)
(202.061 -0.00143532 0)
(201.808 -0.00142237 0)
(201.562 -0.0014105 0)
(201.32 -0.00139995 0)
(201.083 -0.0013908 0)
(14.0388 113.37 0)
(21.067 112.217 0)
(35.8855 110.23 0)
(51.3222 110.816 0)
(66.7824 110.742 0)
(81.663 110.57 0)
(96.0378 110.282 0)
(109.974 109.974 0)
(123.482 109.589 0)
(136.591 109.299 0)
(149.318 108.962 0)
(161.627 108.622 0)
(173.512 108.273 0)
(184.956 107.902 0)
(195.93 107.492 0)
(206.426 107.13 0)
(216.453 106.729 0)
(226.002 106.264 0)
(235.037 105.874 0)
(243.504 105.477 0)
(251.317 105.169 0)
(258.357 104.805 0)
(264.551 104.52 0)
(269.845 104.298 0)
(274.468 104.003 0)
(278.58 103.795 0)
(282.174 103.657 0)
(285.343 103.473 0)
(288.343 103.371 0)
(291.271 103.333 0)
(294.236 103.402 0)
(297.282 103.578 0)
(300.396 103.64 0)
(303.499 103.636 0)
(306.416 103.321 0)
(309.06 102.743 0)
(311.436 102.165 0)
(313.552 101.461 0)
(315.901 101.076 0)
(317.837 100.695 0)
(319.587 100.625 0)
(320.956 100.489 0)
(321.988 100.558 0)
(322.773 100.639 0)
(323.618 100.752 0)
(324.742 101.229 0)
(326.519 101.45 0)
(328.949 101.97 0)
(332.247 102.409 0)
(336.575 103.063 0)
(342.213 103.476 0)
(349.486 104.119 0)
(358.747 104.413 0)
(370.067 105.021 0)
(383.584 105.209 0)
(399.321 105.65 0)
(417.323 105.869 0)
(437.612 105.869 0)
(460.144 106.009 0)
(484.915 106.033 0)
(511.81 106.134 0)
(540.938 106.147 0)
(572.378 106.728 0)
(606.349 107.387 0)
(643.103 108.037 0)
(682.974 109.548 0)
(726.979 111.155 0)
(775.905 113.682 0)
(832.453 118.028 0)
(901.374 123.253 0)
(966.721 127.638 0)
(870.564 106.635 0)
(480.039 60.2686 0)
(260.188 36.699 0)
(247.925 35.2564 0)
(246.722 34.7312 0)
(245.547 34.2066 0)
(244.29 33.6535 0)
(243.07 33.1055 0)
(241.912 32.5754 0)
(240.809 32.062 0)
(239.751 31.5637 0)
(238.735 31.0768 0)
(237.757 30.5999 0)
(236.815 30.1328 0)
(235.906 29.6745 0)
(235.028 29.2256 0)
(234.179 28.7851 0)
(233.359 28.3525 0)
(232.565 27.9284 0)
(231.796 27.5115 0)
(231.05 27.1019 0)
(230.326 26.6994 0)
(229.622 26.3036 0)
(228.937 25.9138 0)
(228.27 25.5297 0)
(227.618 25.1509 0)
(226.983 24.7761 0)
(226.361 24.4048 0)
(225.753 24.0359 0)
(225.157 23.6684 0)
(224.571 23.3005 0)
(223.994 22.931 0)
(223.426 22.5586 0)
(222.865 22.1813 0)
(222.309 21.7973 0)
(221.759 21.4047 0)
(221.211 21.002 0)
(220.667 20.5872 0)
(220.125 20.1588 0)
(219.585 19.7147 0)
(219.046 19.2538 0)
(218.508 18.7751 0)
(217.972 18.2758 0)
(217.436 17.757 0)
(216.903 17.2149 0)
(216.376 16.6493 0)
(215.842 16.066 0)
(215.322 15.455 0)
(214.795 14.8313 0)
(214.262 14.1758 0)
(213.758 13.468 0)
(213.204 12.7501 0)
(212.639 12.0156 0)
(212.162 11.2884 0)
(211.715 10.517 0)
(211.264 9.63863 0)
(210.823 8.64964 0)
(210.426 7.54669 0)
(210.139 6.3373 0)
(210.059 5.06709 0)
(210.25 3.81986 0)
(210.559 2.70448 0)
(210.759 1.80942 0)
(210.542 1.10594 0)
(209.878 0.687404 0)
(210.188 0.326172 0)
(209.666 0.0999987 0)
(209.15 0.0671902 0)
(208.866 0.0252096 0)
(208.539 0.00512632 0)
(208.186 -0.00230482 0)
(207.843 -0.00373741 0)
(207.485 -0.00361355 0)
(207.137 -0.00294114 0)
(206.801 -0.00242748 0)
(206.474 -0.00214144 0)
(206.15 -0.00199882 0)
(205.83 -0.00191392 0)
(205.516 -0.00184865 0)
(205.207 -0.00179011 0)
(204.903 -0.00173514 0)
(204.603 -0.00168384 0)
(204.309 -0.00163781 0)
(204.021 -0.00159759 0)
(203.738 -0.00156296 0)
(203.457 -0.00153356 0)
(203.175 -0.00150835 0)
(202.89 -0.00148611 0)
(202.604 -0.00146638 0)
(202.326 -0.00144914 0)
(202.061 -0.00143369 0)
(201.808 -0.00141989 0)
(201.562 -0.00140701 0)
(201.32 -0.00139561 0)
(201.083 -0.00138553 0)
(8.22158 127.012 0)
(22.604 127.805 0)
(36.6668 123.432 0)
(51.8328 123.916 0)
(66.7226 123.997 0)
(81.3717 123.936 0)
(95.6699 123.73 0)
(109.589 123.482 0)
(123.105 123.105 0)
(136.213 122.737 0)
(148.931 122.322 0)
(161.236 121.92 0)
(173.117 121.524 0)
(184.548 121.121 0)
(195.499 120.686 0)
(205.975 120.283 0)
(215.989 119.859 0)
(225.538 119.388 0)
(234.593 119.012 0)
(243.092 118.616 0)
(250.949 118.345 0)
(258.034 118.026 0)
(264.262 117.771 0)
(269.582 117.611 0)
(274.278 117.389 0)
(278.43 117.244 0)
(282.081 117.212 0)
(285.336 117.138 0)
(288.442 117.143 0)
(291.487 117.158 0)
(294.559 117.212 0)
(297.672 117.303 0)
(300.768 117.149 0)
(303.797 116.888 0)
(306.609 116.324 0)
(309.213 115.556 0)
(311.69 114.946 0)
(313.987 114.269 0)
(316.568 113.953 0)
(318.679 113.701 0)
(320.506 113.747 0)
(321.886 113.64 0)
(322.891 113.753 0)
(323.662 113.877 0)
(324.545 114.035 0)
(325.726 114.564 0)
(327.551 114.813 0)
(329.994 115.42 0)
(333.313 115.828 0)
(337.627 116.519 0)
(343.252 116.904 0)
(350.526 117.488 0)
(359.775 117.688 0)
(371.088 118.263 0)
(384.604 118.347 0)
(400.353 118.72 0)
(418.391 118.839 0)
(438.763 118.795 0)
(461.387 118.898 0)
(486.279 118.847 0)
(513.379 118.97 0)
(542.729 119.075 0)
(574.532 119.646 0)
(609.074 120.15 0)
(646.25 121.094 0)
(687.077 122.721 0)
(731.98 124.772 0)
(781.874 128.286 0)
(841.543 132.829 0)
(911.361 140.812 0)
(971.536 142.988 0)
(833.608 114.72 0)
(427.846 61.2657 0)
(254.758 40.8972 0)
(247.419 39.7531 0)
(246.256 39.1906 0)
(245.062 38.6243 0)
(243.805 38.0435 0)
(242.597 37.4777 0)
(241.451 36.9321 0)
(240.358 36.4012 0)
(239.309 35.8833 0)
(238.302 35.3763 0)
(237.332 34.8802 0)
(236.398 34.3947 0)
(235.496 33.9187 0)
(234.624 33.4525 0)
(233.782 32.9952 0)
(232.968 32.5462 0)
(232.18 32.1059 0)
(231.417 31.673 0)
(230.677 31.2476 0)
(229.958 30.8292 0)
(229.259 30.4173 0)
(228.578 30.0109 0)
(227.915 29.6097 0)
(227.266 29.2127 0)