/*--------------------------------*- C++ -*----------------------------------*\
  =========                 |
  \\      /  F ield         | OpenFOAM: The Open Source CFD Toolbox
   \\    /   O peration     | Website:  https://openfoam.org
    \\  /    A nd           | Version:  13
     \\/     M anipulation  |
\*---------------------------------------------------------------------------*/
FoamFile
{
    format      ascii;
    class       volVectorField;
    location    "0.0005";
    object      U;
}
// * * * * * * * * * * * * * * * * * * * * * * * * * * * * * * * * * * * * * //

dimensions      [0 1 -1 0 0 0 0];

internalField   nonuniform List<vector> 
33333
(
(-9.11546e-14 -1.86344e-13 0)
(2.42273e-15 -2.1119e-13 0)
(-1.00088e-14 -2.11249e-13 0)
(-3.35608e-14 -1.62136e-13 0)
(3.28933e-14 -8.28211e-14 0)
(4.6821e-14 -7.07595e-14 0)
(1.5007e-14 -8.22982e-14 0)
(5.18288e-14 -7.82644e-14 0)
(3.39234e-14 -1.30652e-13 0)
(-1.02083e-15 -1.71166e-13 0)
(-2.0412e-14 -2.26921e-13 0)
(-8.76353e-14 -2.15113e-13 0)
(1.35129e-14 -1.73993e-13 0)
(8.10926e-14 -2.05592e-13 0)
(-4.01807e-14 -2.03302e-13 0)
(7.49753e-14 -1.9526e-13 0)
(1.55003e-13 -1.56498e-13 0)
(5.88584e-14 -1.61185e-13 0)
(3.05301e-14 -1.40838e-13 0)
(2.21488e-14 -1.44361e-13 0)
(9.26722e-14 -1.73705e-13 0)
(7.26852e-14 -1.56348e-13 0)
(4.24841e-14 -1.20916e-13 0)
(5.7486e-14 -1.1439e-13 0)
(1.49454e-15 -1.47302e-13 0)
(-2.22557e-14 -2.26385e-13 0)
(-6.74411e-14 -2.22e-13 0)
(-5.9945e-14 -2.18369e-13 0)
(-8.35611e-14 -1.18417e-13 0)
(-3.60894e-14 -6.42672e-14 0)
(2.20011e-14 -9.74822e-14 0)
(-1.46116e-14 -1.83459e-13 0)
(-6.46993e-14 -1.97834e-13 0)
(-1.39995e-13 -1.50422e-13 0)
(-2.7872e-14 -1.5068e-13 0)
(7.43333e-14 -2.10643e-13 0)
(3.55161e-14 -2.47873e-13 0)
(3.86557e-14 -1.82978e-13 0)
(6.77895e-14 -1.47854e-13 0)
(-2.13535e-14 -1.8505e-13 0)
(-3.39828e-14 -1.89179e-13 0)
(-9.44524e-15 -2.60301e-13 0)
(-7.83089e-14 -2.72921e-13 0)
(-5.84084e-14 -2.51331e-13 0)
(-2.58179e-14 -2.7639e-13 0)
(4.10398e-14 -2.48502e-13 0)
(7.24917e-14 -1.97334e-13 0)
(7.11242e-14 -1.43014e-13 0)
(1.18363e-13 -1.77286e-13 0)
(7.99364e-14 -2.1982e-13 0)
(7.22869e-14 -1.97781e-13 0)
(7.33019e-14 -1.83707e-13 0)
(4.02848e-14 -2.05109e-13 0)
(3.36578e-14 -1.93767e-13 0)
(1.90561e-14 -1.54291e-13 0)
(-3.19011e-14 -1.23323e-13 0)
(-1.0692e-13 -1.0743e-13 0)
(-8.83827e-14 -1.42785e-13 0)
(-4.49442e-14 -1.66212e-13 0)
(-5.59234e-14 -1.96804e-13 0)
(-3.83363e-14 -2.17237e-13 0)
(1.25645e-13 -1.83384e-13 0)
(5.71637e-14 -2.16804e-13 0)
(-3.61131e-14 -1.76887e-13 0)
(-6.45776e-14 -1.97174e-13 0)
(-6.50289e-14 -1.78586e-13 0)
(3.28076e-14 -1.99961e-13 0)
(1.12268e-14 -2.24999e-13 0)
(-4.33141e-14 -1.92976e-13 0)
(-1.22988e-14 -1.79597e-13 0)
(2.47455e-14 -2.30718e-13 0)
(-1.40763e-14 -2.38682e-13 0)
(-5.55647e-14 -1.86086e-13 0)
(-1.7798e-14 -1.54906e-13 0)
(2.18685e-14 -1.66527e-13 0)
(6.12687e-14 -1.53354e-13 0)
(2.28479e-14 -1.76176e-13 0)
(2.79241e-14 -1.78733e-13 0)
(6.36821e-14 -2.05299e-13 0)
(1.10834e-13 -1.75818e-13 0)
(5.51395e-14 -1.56906e-13 0)
(1.99274e-14 -1.26951e-13 0)
(-1.60935e-14 -1.3497e-13 0)
(-7.1684e-14 -1.69319e-13 0)
(-4.59641e-14 -2.02378e-13 0)
(8.35155e-15 -2.01452e-13 0)
(-2.32924e-14 -1.39185e-13 0)
(2.48045e-14 -1.64566e-13 0)
(4.05903e-14 -1.56302e-13 0)
(-7.21975e-14 -1.87027e-13 0)
(-1.13473e-13 -1.6501e-13 0)
(-1.44587e-13 -1.40128e-13 0)
(-7.75818e-14 -1.29381e-13 0)
(-7.9527e-14 -1.2997e-13 0)
(-6.19608e-14 -1.55377e-13 0)
(-5.02745e-14 -1.87153e-13 0)
(1.75761e-14 -1.22981e-13 0)
(7.59568e-14 -1.45599e-13 0)
(5.42494e-14 -2.00668e-13 0)
(1.77648e-14 -1.94576e-13 0)
(4.09146e-14 -1.45647e-13 0)
(7.74072e-14 -1.57528e-13 0)
(4.39145e-14 -1.7763e-13 0)
(-3.79757e-14 -9.76628e-14 0)
(-1.67767e-14 -2.44229e-14 0)
(8.34792e-14 -6.47417e-14 0)
(-8.14144e-15 -1.39703e-13 0)
(1.02453e-14 -9.6784e-14 0)
(1.18803e-13 -1.19568e-13 0)
(5.73539e-14 -1.78009e-13 0)
(-1.59424e-14 -2.08088e-13 0)
(-6.59115e-14 -2.34669e-13 0)
(-6.96324e-15 -1.9575e-13 0)
(2.95391e-14 -2.25495e-13 0)
(-5.24101e-14 -2.56428e-13 0)
(-5.52475e-14 -1.97634e-13 0)
(-3.71341e-14 -1.85679e-13 0)
(2.15105e-14 -1.48862e-13 0)
(-1.47081e-14 -1.68082e-13 0)
(-6.3605e-14 -1.94433e-13 0)
(-5.30623e-14 -1.52831e-13 0)
(-1.03184e-13 -1.34477e-13 0)
(-8.17156e-15 -1.5938e-13 0)
(5.12245e-14 -1.88907e-13 0)
(-2.12994e-14 -2.40819e-13 0)
(-7.57899e-14 -2.53118e-13 0)
(-7.64231e-14 -2.17505e-13 0)
(3.91844e-15 -1.78559e-13 0)
(2.2129e-14 -1.95782e-13 0)
(7.04909e-14 -1.41662e-13 0)
(1.16326e-13 -1.7571e-13 0)
(3.55256e-14 -1.2918e-13 0)
(-3.80748e-14 -1.38423e-13 0)
(-5.32088e-14 -1.15626e-13 0)
(-8.74976e-15 -1.47362e-13 0)
(-1.05077e-13 -1.60165e-13 0)
(-6.73462e-14 -1.48798e-13 0)
(2.34307e-14 -8.08369e-14 0)
(8.58266e-14 -1.01238e-13 0)
(4.59878e-15 -1.83257e-13 0)
(-8.6478e-14 -2.17332e-13 0)
(5.10989e-15 -1.55372e-13 0)
(1.63579e-13 -1.79573e-13 0)
(9.40529e-14 -1.48061e-13 0)
(6.46507e-14 -1.82525e-13 0)
(1.02036e-13 -1.96914e-13 0)
(8.55525e-14 -1.57617e-13 0)
(-4.76534e-14 -1.31825e-13 0)
(5.54846e-14 -1.33996e-13 0)
(1.21147e-13 -1.90763e-13 0)
(7.53292e-14 -1.6378e-13 0)
(3.57368e-14 -1.77513e-13 0)
(-9.18177e-15 -1.49272e-13 0)
(-1.73552e-16 -1.06691e-13 0)
(3.52732e-15 -9.25944e-14 0)
(5.2735e-14 -9.32109e-14 0)
(-6.91486e-15 -1.36527e-13 0)
(-8.89846e-14 -1.4984e-13 0)
(-1.66566e-14 -2.13999e-13 0)
(1.86397e-13 -2.71212e-13 0)
(2.4909e-13 -2.00108e-13 0)
(4.41421e-13 -4.50843e-14 0)
(7.90485e-13 -1.33336e-13 0)
(1.02891e-12 -1.12981e-13 0)
(1.04032e-12 -7.02113e-14 0)
(9.32701e-13 -3.224e-14 0)
(9.77235e-13 -2.21127e-14 0)
(-1.5085e-13 -3.04351e-13 0)
(-6.32668e-14 -3.4115e-13 0)
(6.43692e-14 -3.2948e-13 0)
(1.18447e-13 -2.59751e-13 0)
(1.36283e-13 -1.97041e-13 0)
(7.73194e-14 -1.82328e-13 0)
(6.1866e-15 -2.2948e-13 0)
(-2.17404e-15 -2.16316e-13 0)
(-6.46875e-14 -2.21639e-13 0)
(-8.9083e-14 -2.6159e-13 0)
(-7.40253e-14 -3.06958e-13 0)
(-4.9642e-14 -2.71353e-13 0)
(1.94102e-14 -2.15329e-13 0)
(5.69111e-14 -2.54827e-13 0)
(-5.59805e-14 -2.86472e-13 0)
(1.05404e-13 -3.20228e-13 0)
(1.70384e-13 -2.75587e-13 0)
(1.01614e-13 -2.14418e-13 0)
(2.29119e-14 -2.58315e-13 0)
(2.62776e-14 -2.65961e-13 0)
(1.10768e-13 -2.75455e-13 0)
(1.261e-13 -2.86626e-13 0)
(9.51739e-14 -1.87926e-13 0)
(4.25394e-14 -1.4854e-13 0)
(-1.05756e-13 -1.66397e-13 0)
(-1.51342e-13 -2.76499e-13 0)
(-6.08209e-14 -3.25131e-13 0)
(2.44297e-14 -3.09573e-13 0)
(4.29198e-14 -2.43537e-13 0)
(2.02692e-14 -1.17157e-13 0)
(-4.73561e-14 -1.63822e-13 0)
(-1.03256e-13 -1.87204e-13 0)
(-4.40809e-14 -2.5707e-13 0)
(-7.30172e-14 -2.65601e-13 0)
(-6.92099e-14 -2.5078e-13 0)
(-1.65306e-14 -2.15663e-13 0)
(6.07735e-14 -2.51354e-13 0)
(9.486e-14 -2.88921e-13 0)
(-2.65884e-15 -2.51947e-13 0)
(-7.17615e-14 -2.81606e-13 0)
(-5.99912e-14 -2.71783e-13 0)
(-3.88122e-14 -2.64847e-13 0)
(-6.91012e-14 -2.84628e-13 0)
(-6.36258e-14 -3.19189e-13 0)
(4.56339e-15 -3.48557e-13 0)
(1.19326e-13 -3.01812e-13 0)
(1.5587e-13 -2.2907e-13 0)
(1.19118e-13 -2.43381e-13 0)
(3.11305e-14 -2.31298e-13 0)
(3.03708e-14 -2.76839e-13 0)
(7.46434e-14 -2.95349e-13 0)
(7.17266e-14 -3.15362e-13 0)
(1.00936e-13 -3.37679e-13 0)
(1.30529e-13 -3.64293e-13 0)
(8.26533e-14 -3.5575e-13 0)
(-2.28902e-14 -2.93332e-13 0)
(-1.3996e-13 -2.72981e-13 0)
(-1.60499e-13 -2.92824e-13 0)
(-1.22152e-13 -3.24567e-13 0)
(-5.57902e-14 -3.17769e-13 0)
(1.82527e-14 -2.89029e-13 0)
(6.77927e-14 -3.74015e-13 0)
(3.55973e-14 -4.37581e-13 0)
(-3.02295e-14 -3.85242e-13 0)
(-1.01653e-13 -3.22313e-13 0)
(-2.80815e-14 -2.94641e-13 0)
(1.80433e-14 -2.67165e-13 0)
(-1.82954e-14 -2.3759e-13 0)
(-1.89634e-14 -2.99465e-13 0)
(-5.37261e-14 -3.34068e-13 0)
(-2.34782e-14 -3.69136e-13 0)
(7.90189e-15 -3.55193e-13 0)
(8.03038e-15 -3.38685e-13 0)
(6.17539e-14 -2.8171e-13 0)
(4.25446e-14 -2.33477e-13 0)
(1.40575e-14 -2.79087e-13 0)
(3.00171e-14 -3.37397e-13 0)
(4.04077e-14 -3.35553e-13 0)
(1.34581e-13 -3.65185e-13 0)
(1.41021e-13 -3.03383e-13 0)
(6.74093e-14 -3.79393e-13 0)
(-6.9e-14 -3.08429e-13 0)
(-8.50898e-14 -3.80664e-13 0)
(-1.14726e-13 -3.88818e-13 0)
(-2.64715e-14 -3.56516e-13 0)
(8.67746e-14 -3.49024e-13 0)
(5.30404e-14 -3.30796e-13 0)
(5.42176e-14 -2.8462e-13 0)
(-3.86771e-14 -2.36165e-13 0)
(-1.11472e-13 -2.71878e-13 0)
(-8.82011e-14 -2.73661e-13 0)
(-7.63169e-14 -2.06313e-13 0)
(-8.04772e-14 -2.47712e-13 0)
(-1.05482e-13 -2.71635e-13 0)
(-9.79894e-14 -2.94749e-13 0)
(-2.55304e-14 -3.23206e-13 0)
(7.14431e-15 -2.74908e-13 0)
(-1.19764e-14 -2.21884e-13 0)
(1.77585e-14 -2.78438e-13 0)
(8.13164e-14 -3.23484e-13 0)
(6.93187e-14 -3.06997e-13 0)
(3.70672e-14 -2.78413e-13 0)
(1.15575e-13 -2.51338e-13 0)
(8.71974e-14 -1.34345e-13 0)
(1.28796e-14 -8.76684e-14 0)
(1.40542e-14 -1.29975e-13 0)
(1.51885e-14 -2.1428e-13 0)
(6.0147e-14 -1.75458e-13 0)
(2.09441e-14 -1.81563e-13 0)
(-1.52493e-15 -2.45041e-13 0)
(-6.04376e-14 -2.78092e-13 0)
(-3.24369e-14 -2.98251e-13 0)
(-8.77446e-16 -2.78974e-13 0)
(-6.79599e-14 -2.7958e-13 0)
(-8.80461e-14 -2.98296e-13 0)
(-1.70964e-14 -3.41204e-13 0)
(3.85595e-14 -2.52148e-13 0)
(1.01182e-14 -2.48521e-13 0)
(-2.74476e-14 -2.96089e-13 0)
(-6.064e-15 -3.15052e-13 0)
(3.1111e-14 -2.8202e-13 0)
(-6.51106e-14 -2.60384e-13 0)
(-5.96438e-14 -2.16852e-13 0)
(-9.20528e-14 -2.76072e-13 0)
(-1.14598e-13 -3.35786e-13 0)
(-6.8675e-14 -3.42405e-13 0)
(-4.54015e-14 -3.00842e-13 0)
(4.97362e-14 -2.70264e-13 0)
(1.27659e-13 -3.13471e-13 0)
(1.33951e-13 -2.27582e-13 0)
(8.92347e-14 -3.12223e-13 0)
(2.92817e-14 -3.36573e-13 0)
(-1.67046e-14 -2.72235e-13 0)
(-5.75029e-14 -2.06992e-13 0)
(-4.14885e-14 -2.64859e-13 0)
(-5.96098e-14 -3.32273e-13 0)
(-1.88142e-14 -2.30193e-13 0)
(8.02399e-14 -1.54376e-13 0)
(-1.19876e-14 -1.45997e-13 0)
(-9.09543e-14 -2.21479e-13 0)
(-2.83697e-14 -2.69852e-13 0)
(6.85499e-14 -2.0869e-13 0)
(1.37928e-13 -2.58331e-13 0)
(9.48299e-14 -2.70783e-13 0)
(7.53301e-14 -2.99904e-13 0)
(1.44997e-13 -2.8762e-13 0)
(1.05172e-13 -2.94264e-13 0)
(-3.08404e-14 -2.43894e-13 0)
(1.71634e-14 -1.88855e-13 0)
(8.31126e-14 -1.66604e-13 0)
(4.60731e-14 -2.24605e-13 0)
(4.4619e-14 -2.87905e-13 0)
(8.62645e-14 -2.73425e-13 0)
(1.08296e-13 -2.91671e-13 0)
(6.6249e-14 -2.63825e-13 0)
(5.90903e-14 -2.64631e-13 0)
(-1.27553e-13 -2.65829e-13 0)
(-2.49964e-13 -3.4143e-13 0)
(-9.47979e-14 -3.56073e-13 0)
(1.93876e-13 -3.92117e-13 0)
(4.5123e-13 -3.02625e-13 0)
(5.48776e-13 -2.05203e-13 0)
(7.31592e-13 -2.02889e-13 0)
(1.01959e-12 -2.7152e-13 0)
(1.09382e-12 -4.05147e-13 0)
(1.06481e-12 -3.947e-13 0)
(1.10566e-12 -3.74086e-13 0)
(-1.18938e-13 -2.74063e-13 0)
(-6.04174e-14 -2.84223e-13 0)
(1.18295e-14 -2.99498e-13 0)
(1.4945e-13 -3.29033e-13 0)
(1.75371e-13 -2.66092e-13 0)
(8.28033e-14 -2.44006e-13 0)
(7.5871e-15 -2.66544e-13 0)
(4.11275e-15 -3.06071e-13 0)
(-9.50142e-14 -3.75819e-13 0)
(-9.56446e-14 -4.06656e-13 0)
(-4.04173e-14 -3.40636e-13 0)
(-2.20214e-15 -2.78413e-13 0)
(4.29193e-14 -3.07509e-13 0)
(6.65499e-14 -2.53129e-13 0)
(-4.28658e-14 -2.65657e-13 0)
(6.8434e-14 -2.55347e-13 0)
(2.38105e-13 -3.18279e-13 0)
(5.73732e-14 -2.82929e-13 0)
(-4.82722e-14 -3.46022e-13 0)
(2.86084e-14 -3.45434e-13 0)
(1.10448e-13 -2.67381e-13 0)
(1.69874e-13 -2.47484e-13 0)
(1.80824e-13 -2.31844e-13 0)
(7.31473e-14 -2.36299e-13 0)
(-1.23456e-13 -2.05452e-13 0)
(-2.23514e-13 -2.3844e-13 0)
(-9.2677e-14 -2.4118e-13 0)
(1.65742e-16 -2.10278e-13 0)
(8.16894e-14 -2.38214e-13 0)
(9.57754e-14 -1.87656e-13 0)
(6.63129e-15 -2.06605e-13 0)
(-1.48595e-13 -1.85598e-13 0)
(-1.76554e-13 -2.93878e-13 0)
(-1.1416e-13 -3.49802e-13 0)
(2.95247e-14 -2.85815e-13 0)
(3.74079e-14 -1.65181e-13 0)
(-1.68233e-14 -1.529e-13 0)
(3.9714e-14 -2.22998e-13 0)
(-1.50858e-15 -3.61038e-13 0)
(-1.09351e-13 -4.48928e-13 0)
(-6.08019e-14 -4.2992e-13 0)
(9.85677e-15 -3.91238e-13 0)
(-1.50825e-14 -2.86942e-13 0)
(-5.48885e-14 -2.59025e-13 0)
(2.93024e-14 -2.40757e-13 0)
(9.75856e-14 -1.58856e-13 0)
(5.10007e-14 -1.83977e-13 0)
(6.48575e-14 -2.52384e-13 0)
(8.19051e-14 -2.2602e-13 0)
(2.07879e-14 -1.96518e-13 0)
(1.28082e-14 -2.45889e-13 0)
(1.55974e-14 -2.78134e-13 0)
(5.22983e-14 -3.45506e-13 0)
(1.21209e-13 -3.27759e-13 0)
(6.27299e-14 -3.23699e-13 0)
(5.80544e-15 -3.344e-13 0)
(-7.87849e-14 -3.28379e-13 0)
(-1.30865e-13 -3.61858e-13 0)
(-9.31612e-14 -3.48219e-13 0)
(-1.33198e-14 -3.56882e-13 0)
(-2.36406e-14 -3.10651e-13 0)
(-5.62115e-14 -4.14635e-13 0)
(2.13238e-14 -4.69149e-13 0)
(4.21667e-14 -5.44197e-13 0)
(-1.71104e-14 -4.70896e-13 0)
(2.76098e-14 -3.64432e-13 0)
(7.91758e-14 -2.41414e-13 0)
(-5.6176e-14 -2.10775e-13 0)
(-1.23215e-13 -2.87796e-13 0)
(-6.77823e-14 -3.72562e-13 0)
(-2.7784e-14 -3.91955e-13 0)
(8.71299e-15 -3.84315e-13 0)
(4.52647e-14 -3.70281e-13 0)
(1.26078e-13 -3.83646e-13 0)
(1.1091e-14 -3.40789e-13 0)
(-5.63182e-14 -3.95684e-13 0)
(-2.83567e-14 -4.10557e-13 0)
(4.03246e-14 -3.83486e-13 0)
(1.68464e-13 -3.77916e-13 0)
(1.43701e-13 -3.36886e-13 0)
(5.46503e-14 -4.29914e-13 0)
(-5.55591e-14 -5.27869e-13 0)
(-1.81207e-13 -5.60792e-13 0)
(-7.2282e-14 -4.87898e-13 0)
(1.49397e-14 -3.49e-13 0)
(1.09033e-13 -2.8339e-13 0)
(7.04741e-14 -2.91561e-13 0)
(1.01862e-13 -2.7021e-13 0)
(1.63847e-14 -3.30553e-13 0)
(-1.33052e-13 -2.92412e-13 0)
(-1.01896e-13 -2.42403e-13 0)
(-9.10533e-14 -2.00817e-13 0)
(-1.40233e-13 -2.31034e-13 0)
(-9.4562e-14 -2.97303e-13 0)
(-1.11272e-13 -3.32533e-13 0)
(-8.36264e-14 -2.84136e-13 0)
(5.31866e-14 -2.71523e-13 0)
(4.70244e-14 -2.62033e-13 0)
(-2.3344e-14 -2.82322e-13 0)
(-4.42339e-15 -3.63064e-13 0)
(4.08858e-14 -3.70054e-13 0)
(1.15529e-13 -3.18197e-13 0)
(1.75142e-13 -2.95514e-13 0)
(9.54838e-14 -2.43177e-13 0)
(-1.86639e-14 -2.05534e-13 0)
(-7.12937e-15 -1.71026e-13 0)
(3.6827e-15 -1.84682e-13 0)
(1.93662e-14 -2.52815e-13 0)
(1.32266e-14 -2.79441e-13 0)
(9.13143e-16 -3.03145e-13 0)
(-5.30317e-14 -3.27516e-13 0)
(-4.80343e-14 -3.2783e-13 0)
(-6.59998e-16 -2.86826e-13 0)
(-4.15184e-14 -3.28559e-13 0)
(-1.3848e-13 -3.64379e-13 0)
(-3.94887e-14 -3.39624e-13 0)
(8.42711e-14 -3.58426e-13 0)
(-3.12333e-14 -3.03139e-13 0)
(-8.52527e-14 -3.52814e-13 0)
(-2.21936e-14 -3.08442e-13 0)
(4.81697e-14 -3.22186e-13 0)
(4.96143e-14 -2.41242e-13 0)
(-1.05656e-14 -1.50296e-13 0)
(-5.28698e-14 -2.02292e-13 0)
(-1.09723e-13 -1.39712e-13 0)
(-1.30906e-13 -1.82158e-13 0)
(-7.56813e-14 -2.03354e-13 0)
(-1.1408e-14 -1.7397e-13 0)
(1.30528e-13 -2.01971e-13 0)
(1.28415e-13 -2.16146e-13 0)
(2.17705e-14 -2.7463e-13 0)
(3.37816e-15 -3.53557e-13 0)
(3.52076e-14 -3.59882e-13 0)
(-2.49955e-14 -3.2811e-13 0)
(-7.16123e-14 -2.92439e-13 0)
(-1.44154e-14 -2.43741e-13 0)
(2.18639e-14 -1.9276e-13 0)
(8.05992e-14 -1.80385e-13 0)
(3.3932e-14 -2.39726e-13 0)
(-1.01233e-13 -1.91126e-13 0)
(-7.66345e-14 -1.70597e-13 0)
(-1.30958e-15 -2.61625e-13 0)
(7.41834e-14 -3.32418e-13 0)
(5.8173e-14 -3.7084e-13 0)
(2.70761e-14 -3.73631e-13 0)
(1.22861e-13 -3.31825e-13 0)
(1.70328e-13 -2.41317e-13 0)
(6.67349e-14 -1.93324e-13 0)
(9.21944e-14 -1.42929e-13 0)
(6.26183e-14 -1.59043e-13 0)
(-5.44134e-14 -2.50919e-13 0)
(-2.10287e-14 -3.20026e-13 0)
(3.1723e-14 -3.35709e-13 0)
(4.25921e-14 -3.74033e-13 0)
(1.0243e-13 -3.48876e-13 0)
(1.18901e-13 -3.84707e-13 0)
(-1.05316e-13 -4.02207e-13 0)
(-2.13888e-13 -4.90507e-13 0)
(-6.71939e-14 -4.25393e-13 0)
(2.09478e-13 -3.45513e-13 0)
(4.57803e-13 -2.93111e-13 0)
(6.08986e-13 -2.86234e-13 0)
(7.68026e-13 -1.97608e-13 0)
(8.41231e-13 -3.15444e-13 0)
(9.59296e-13 -4.60432e-13 0)
(1.09121e-12 -5.49219e-13 0)
(1.20145e-12 -4.97852e-13 0)
(-1.31334e-13 -1.48179e-13 0)
(-5.73409e-14 -1.63944e-13 0)
(2.65536e-14 -2.05347e-13 0)
(1.56397e-13 -1.77291e-13 0)
(1.53437e-13 -2.325e-13 0)
(7.82766e-14 -3.00672e-13 0)
(4.24686e-15 -2.20546e-13 0)
(-8.08001e-14 -2.63624e-13 0)
(-1.09185e-13 -3.40321e-13 0)
(-4.20217e-14 -2.92475e-13 0)
(2.16013e-14 -1.70533e-13 0)
(-2.23181e-14 -1.8602e-13 0)
(5.05331e-14 -2.09415e-13 0)
(7.1533e-14 -2.82482e-13 0)
(3.45702e-14 -1.72183e-13 0)
(6.90523e-14 -1.25117e-13 0)
(1.56907e-13 -2.25802e-13 0)
(1.49965e-14 -2.27712e-13 0)
(-5.86166e-14 -2.0382e-13 0)
(6.25174e-14 -1.75999e-13 0)
(1.50945e-13 -1.97848e-13 0)
(2.0615e-13 -1.46708e-13 0)
(1.44006e-13 -2.3568e-13 0)
(4.52636e-14 -3.09198e-13 0)
(-1.14931e-13 -2.72241e-13 0)
(-2.11262e-13 -1.9382e-13 0)
(-5.79644e-14 -1.793e-13 0)
(6.29034e-16 -1.97496e-13 0)
(1.14984e-13 -1.89718e-13 0)
(6.3025e-14 -1.99069e-13 0)
(-6.8064e-14 -2.64341e-13 0)
(-1.71793e-13 -3.14747e-13 0)
(-2.04179e-13 -3.31836e-13 0)
(-2.89552e-14 -2.82689e-13 0)
(1.08949e-13 -1.71302e-13 0)
(1.01038e-13 -2.20243e-13 0)
(8.8329e-15 -2.01179e-13 0)
(-9.63914e-14 -2.36396e-13 0)
(-1.47312e-13 -4.16206e-13 0)
(-1.30478e-13 -4.03262e-13 0)
(-3.67994e-14 -4.52426e-13 0)
(1.03725e-13 -3.88197e-13 0)
(8.84707e-14 -2.43069e-13 0)
(-5.898e-15 -1.56964e-13 0)
(6.65585e-14 -1.05535e-13 0)
(1.17627e-13 -1.13819e-13 0)
(1.52348e-14 -7.58345e-14 0)
(2.64117e-14 -9.91453e-14 0)
(1.0619e-13 -1.39468e-13 0)
(-6.73514e-15 -4.59693e-14 0)
(-5.84447e-14 -1.01154e-13 0)
(-1.49094e-14 -1.09865e-13 0)
(7.05192e-14 -1.7652e-13 0)
(1.59318e-13 -2.04473e-13 0)
(6.26892e-14 -2.62754e-13 0)
(-2.02769e-14 -3.72982e-13 0)
(-1.11723e-13 -3.48556e-13 0)
(-1.54277e-13 -3.70979e-13 0)
(-1.05496e-13 -3.54117e-13 0)
(-2.5684e-14 -3.25518e-13 0)
(-3.93738e-14 -3.57272e-13 0)
(-8.20817e-14 -3.1847e-13 0)
(-6.23289e-14 -3.85362e-13 0)
(-2.75118e-14 -4.91471e-13 0)
(9.03812e-14 -4.30763e-13 0)
(1.29842e-13 -3.41168e-13 0)
(1.5634e-13 -2.76069e-13 0)
(-3.72742e-14 -2.61724e-13 0)
(-1.89797e-13 -1.66316e-13 0)
(-1.52279e-13 -2.2551e-13 0)
(-1.85918e-14 -2.4805e-13 0)
(6.11851e-14 -3.18343e-13 0)
(3.40896e-14 -3.31105e-13 0)
(9.64428e-14 -3.52701e-13 0)
(1.65111e-14 -2.86117e-13 0)
(-8.22643e-14 -3.18167e-13 0)
(-5.37331e-15 -2.77451e-13 0)
(8.16455e-14 -2.04099e-13 0)
(1.85906e-13 -1.49081e-13 0)
(1.12086e-13 -3.22641e-13 0)
(-9.02673e-14 -3.68993e-13 0)
(-9.97811e-14 -4.52582e-13 0)
(-8.58907e-14 -3.89838e-13 0)
(-1.35678e-14 -3.56092e-13 0)
(9.17535e-14 -2.23597e-13 0)
(1.42818e-13 -1.24368e-13 0)
(6.17122e-14 -1.46636e-13 0)
(3.49066e-14 -1.60924e-13 0)
(3.08392e-14 -2.38324e-13 0)
(-3.72156e-14 -2.60051e-13 0)
(-3.6182e-14 -1.84484e-13 0)
(-1.0992e-13 -1.64393e-13 0)
(-1.50598e-13 -4.69705e-14 0)
(-1.39216e-13 -1.06279e-13 0)
(-1.24154e-13 -1.47512e-13 0)
(-1.62795e-14 -1.42165e-13 0)
(7.3744e-14 -1.59973e-13 0)
(-1.82689e-14 -2.20866e-13 0)
(-9.81941e-14 -3.21513e-13 0)
(1.85256e-14 -2.18482e-13 0)
(6.52499e-14 -2.27193e-13 0)
(8.68965e-14 -1.57832e-13 0)
(1.37171e-13 -2.23473e-13 0)
(1.63663e-13 -3.1548e-13 0)
(4.85477e-14 -2.78501e-13 0)
(2.97341e-14 -2.44619e-13 0)
(-3.84669e-14 -1.93066e-13 0)
(-3.63208e-14 -2.25824e-13 0)
(-5.00266e-14 -2.86057e-13 0)
(-6.2932e-14 -4.28607e-13 0)
(-7.61015e-14 -4.29494e-13 0)
(4.53478e-15 -4.2082e-13 0)
(3.18765e-14 -3.47942e-13 0)
(-6.04988e-14 -3.50022e-13 0)
(-7.77406e-14 -3.23581e-13 0)
(-3.37934e-14 -2.86926e-13 0)
(4.26768e-14 -3.44442e-13 0)
(4.99284e-14 -2.59483e-13 0)
(-6.98936e-14 -2.10458e-13 0)
(-1.44824e-14 -1.92e-13 0)
(8.45549e-14 -1.58839e-13 0)
(1.45728e-13 -1.50538e-13 0)
(2.77824e-14 -7.93509e-14 0)
(-1.01519e-13 -8.14794e-14 0)
(-1.39048e-13 -3.73121e-14 0)
(-1.73723e-13 -2.2833e-14 0)
(-6.63163e-14 -4.3969e-14 0)
(4.1666e-14 -3.00692e-14 0)
(1.40409e-13 -7.88508e-14 0)
(7.41048e-14 -1.66072e-13 0)
(-1.26716e-14 -2.65281e-13 0)
(-5.53495e-14 -2.02013e-13 0)
(-6.38905e-14 -2.54969e-13 0)
(-2.20911e-14 -2.97674e-13 0)
(3.89001e-14 -2.13286e-13 0)
(4.16264e-14 -1.71828e-13 0)
(8.61252e-14 -1.29919e-13 0)
(2.15425e-14 -1.70078e-13 0)
(-4.2888e-14 -2.88858e-13 0)
(-1.28032e-14 -2.18201e-13 0)
(-8.89681e-14 -1.60602e-13 0)
(-3.75462e-14 -1.84669e-13 0)
(4.80842e-14 -1.702e-13 0)
(2.93846e-14 -2.30468e-13 0)
(6.46588e-14 -2.00597e-13 0)
(2.02445e-13 -1.89787e-13 0)
(2.60231e-13 -1.07373e-13 0)
(1.06404e-13 -1.60649e-13 0)
(3.96981e-14 -1.65272e-13 0)
(-1.21856e-14 -2.47576e-13 0)
(-1.53516e-13 -2.4104e-13 0)
(-7.09414e-14 -2.88825e-13 0)
(4.35105e-14 -3.08659e-13 0)
(1.20812e-13 -2.72238e-13 0)
(9.62431e-14 -3.23778e-13 0)
(6.24457e-14 -4.10304e-13 0)
(-1.20029e-13 -4.257e-13 0)
(-2.26595e-13 -4.64941e-13 0)
(-4.63626e-14 -4.07127e-13 0)
(2.11793e-13 -3.27616e-13 0)
(4.79592e-13 -3.02964e-13 0)
(6.90519e-13 -2.21064e-13 0)
(7.17074e-13 -2.22662e-13 0)
(7.41308e-13 -2.33947e-13 0)
(9.43763e-13 -3.02523e-13 0)
(1.04988e-12 -4.16848e-13 0)
(1.21069e-12 -3.56355e-13 0)
(-1.04577e-13 -1.03369e-13 0)
(-1.1063e-13 -1.3145e-13 0)
(-2.74777e-14 -1.56845e-13 0)
(1.14225e-13 -2.14279e-13 0)
(6.60819e-14 -2.78352e-13 0)
(7.79612e-14 -3.54722e-13 0)
(6.3282e-14 -3.02136e-13 0)
(-9.08081e-14 -2.88019e-13 0)
(-9.50454e-14 -2.87072e-13 0)
(5.69276e-14 -2.05707e-13 0)
(3.02576e-14 -2.2773e-13 0)
(-2.13571e-14 -2.37085e-13 0)
(-1.89529e-14 -1.92282e-13 0)
(1.0155e-13 -2.54671e-13 0)
(1.65502e-13 -1.95374e-13 0)
(4.54534e-14 -9.30776e-14 0)
(2.83863e-14 -6.23701e-14 0)
(4.56448e-14 -1.02679e-13 0)
(6.8155e-16 -3.21631e-14 0)
(2.57187e-14 -4.66113e-14 0)
(1.00175e-13 -1.30748e-13 0)
(1.38396e-13 -2.06838e-13 0)
(7.79414e-14 -3.25031e-13 0)
(1.43527e-14 -4.02318e-13 0)
(-5.06388e-14 -3.31664e-13 0)
(-1.47073e-13 -2.53454e-13 0)
(-1.5281e-13 -2.346e-13 0)
(-2.79728e-14 -2.7012e-13 0)
(1.60415e-13 -2.46595e-13 0)
(2.71539e-15 -2.8244e-13 0)
(-1.12107e-13 -2.97888e-13 0)
(-9.21233e-14 -3.20532e-13 0)
(-1.19428e-13 -2.45072e-13 0)
(-6.24529e-15 -2.41463e-13 0)
(7.13657e-14 -2.06095e-13 0)
(3.4248e-14 -2.67694e-13 0)
(-5.12378e-14 -3.32195e-13 0)
(-1.32329e-13 -3.68176e-13 0)
(-1.11942e-13 -4.09657e-13 0)
(-6.08499e-14 -4.0476e-13 0)
(-2.17213e-14 -3.76989e-13 0)
(1.71656e-13 -3.43701e-13 0)
(1.74093e-13 -3.50874e-13 0)
(4.98925e-14 -2.45848e-13 0)
(5.27979e-14 -1.60517e-13 0)
(8.79176e-14 -1.69224e-13 0)
(1.1414e-13 -1.45932e-13 0)
(1.26442e-14 -1.38545e-13 0)
(7.40539e-14 -1.5601e-13 0)
(3.2329e-14 -1.5348e-13 0)
(-2.06481e-14 -6.27293e-14 0)
(-2.07723e-14 -8.06639e-14 0)
(-5.65782e-14 -1.321e-13 0)
(1.57482e-14 -2.75312e-13 0)
(-5.73637e-14 -3.41145e-13 0)
(-1.88498e-14 -3.67241e-13 0)
(-4.37521e-14 -3.91538e-13 0)
(-1.05597e-13 -3.5968e-13 0)
(-4.3723e-14 -3.54449e-13 0)
(-2.74788e-14 -3.46927e-13 0)
(-2.39913e-14 -4.41137e-13 0)
(-1.07771e-13 -4.05898e-13 0)
(-9.65756e-14 -4.25048e-13 0)
(1.18208e-14 -3.61869e-13 0)
(1.28561e-13 -3.29353e-13 0)
(1.27861e-13 -3.05806e-13 0)
(1.8381e-13 -3.22004e-13 0)
(5.57066e-14 -2.95636e-13 0)
(-1.29242e-13 -2.03596e-13 0)
(-1.57943e-13 -9.37768e-14 0)
(-9.37253e-14 -1.27925e-13 0)
(-3.45066e-14 -1.67332e-13 0)
(2.68357e-14 -2.46451e-13 0)
(1.21984e-13 -2.08157e-13 0)
(5.98903e-14 -2.57299e-13 0)
(-4.63701e-14 -2.1729e-13 0)
(6.22045e-14 -1.64798e-13 0)
(1.51742e-13 -1.63894e-13 0)
(5.49225e-14 -2.01453e-13 0)
(-4.98173e-14 -3.57909e-13 0)
(-5.58661e-14 -3.34908e-13 0)
(-1.85902e-14 -2.89685e-13 0)
(-6.81438e-14 -2.13032e-13 0)
(-2.04894e-15 -2.23299e-13 0)
(1.38649e-13 -1.88216e-13 0)
(1.12726e-13 -2.28474e-13 0)
(7.77757e-14 -2.04108e-13 0)
(8.78538e-14 -2.50992e-13 0)
(2.55252e-14 -1.97695e-13 0)
(-1.93191e-14 -2.09997e-13 0)
(-5.49022e-14 -2.37823e-13 0)
(-3.15196e-14 -1.76978e-13 0)
(-3.62927e-14 -9.61941e-14 0)
(-1.39006e-13 -1.3967e-14 0)
(-1.53389e-13 -4.9957e-14 0)
(-1.05611e-13 -3.49575e-14 0)
(-3.38629e-14 -1.55379e-13 0)
(-8.46587e-14 -2.31689e-13 0)
(-1.73256e-14 -2.42196e-13 0)
(9.22395e-14 -1.97e-13 0)
(1.01459e-13 -1.83448e-13 0)
(1.00237e-13 -2.30478e-13 0)
(4.6008e-14 -2.39898e-13 0)
(3.9066e-14 -3.08492e-13 0)
(3.88241e-14 -3.49305e-13 0)
(1.02295e-13 -3.08314e-13 0)
(3.27251e-14 -2.90147e-13 0)
(-9.49725e-14 -2.60978e-13 0)
(-2.10542e-13 -3.02652e-13 0)
(-1.62801e-13 -3.68705e-13 0)
(-5.85721e-14 -3.29536e-13 0)
(6.27762e-14 -3.58631e-13 0)
(1.69676e-13 -4.27144e-13 0)
(4.17152e-14 -3.83998e-13 0)
(-3.61191e-14 -2.59779e-13 0)
(-8.0739e-14 -2.75831e-13 0)
(2.51556e-14 -2.48737e-13 0)
(9.74485e-14 -2.07876e-13 0)
(-5.00863e-15 -1.66387e-13 0)
(3.65815e-14 -9.77201e-14 0)
(7.34895e-14 -5.11417e-14 0)
(1.24567e-13 -1.31741e-13 0)
(3.26708e-14 -1.42544e-13 0)
(-7.98049e-14 -1.07344e-13 0)
(-3.47207e-14 -1.05332e-13 0)
(-1.04889e-13 -3.88399e-14 0)
(-9.38776e-14 -2.55947e-14 0)
(-4.19749e-14 -6.80425e-14 0)
(2.64942e-14 -1.50966e-13 0)
(-1.12518e-14 -2.18915e-13 0)
(5.39992e-16 -2.73015e-13 0)
(3.54208e-14 -2.80072e-13 0)
(-5.78798e-14 -2.46576e-13 0)
(-3.64388e-14 -2.11459e-13 0)
(1.1675e-14 -2.37986e-13 0)
(1.38928e-14 -2.72212e-13 0)
(5.31434e-14 -2.59984e-13 0)
(-4.83536e-14 -2.93925e-13 0)
(7.7191e-15 -2.51707e-13 0)
(6.77397e-14 -1.97543e-13 0)
(-2.01454e-14 -1.8857e-13 0)
(-1.90887e-14 -1.34419e-13 0)
(5.34091e-14 -1.53437e-13 0)
(2.11749e-14 -1.12987e-13 0)
(4.63349e-14 -5.83413e-14 0)
(1.47474e-13 -7.0084e-14 0)
(1.51379e-13 -1.71497e-13 0)
(4.92892e-14 -2.7417e-13 0)
(8.26372e-14 -2.79044e-13 0)
(-4.7596e-15 -2.98066e-13 0)
(-9.3724e-14 -2.74632e-13 0)
(-4.23124e-14 -2.26163e-13 0)
(2.44668e-14 -2.47392e-13 0)
(2.476e-14 -2.57454e-13 0)
(-1.67892e-14 -3.67415e-13 0)
(-3.61368e-17 -4.76125e-13 0)
(-7.82891e-14 -4.75009e-13 0)
(-1.28307e-13 -3.89743e-13 0)
(5.03243e-15 -3.57198e-13 0)
(2.35833e-13 -3.03671e-13 0)
(5.00215e-13 -2.867e-13 0)
(6.86992e-13 -2.73424e-13 0)
(7.69036e-13 -2.67288e-13 0)
(7.61013e-13 -2.15585e-13 0)
(8.03189e-13 -2.49389e-13 0)
(9.46305e-13 -3.09394e-13 0)
(1.12472e-12 -3.56391e-13 0)
(-1.38182e-13 -1.07409e-13 0)
(-1.08289e-13 -1.80623e-13 0)
(-2.26426e-14 -1.9619e-13 0)
(6.84249e-14 -2.35954e-13 0)
(2.28777e-14 -2.47679e-13 0)
(-2.28466e-15 -2.11256e-13 0)
(-8.26477e-15 -1.97438e-13 0)
(-5.6184e-14 -1.87141e-13 0)
(-5.13483e-14 -1.84913e-13 0)
(2.43965e-14 -2.22134e-13 0)
(-5.50714e-15 -2.86424e-13 0)
(2.70534e-14 -2.66028e-13 0)
(4.01627e-14 -2.41304e-13 0)
(4.47021e-14 -2.05253e-13 0)
(1.6183e-13 -2.4244e-13 0)
(1.6858e-13 -1.66023e-13 0)
(7.9671e-14 -7.35091e-14 0)
(-3.77353e-16 -3.93236e-14 0)
(1.66482e-14 -8.91749e-14 0)
(-1.59776e-14 -1.10177e-13 0)
(5.09225e-14 -1.78356e-13 0)
(6.24898e-14 -2.37366e-13 0)
(-4.21397e-16 -2.64093e-13 0)
(-1.37049e-14 -3.52032e-13 0)
(-3.21587e-14 -4.01184e-13 0)
(-1.42148e-13 -3.09462e-13 0)
(-1.04816e-13 -3.38192e-13 0)
(-2.63916e-14 -2.41312e-13 0)
(1.09606e-13 -2.85147e-13 0)
(4.42265e-14 -2.7662e-13 0)
(-8.01177e-14 -2.44244e-13 0)
(-5.67211e-14 -1.92163e-13 0)
(-8.28646e-14 -1.50987e-13 0)
(-2.4541e-14 -1.66785e-13 0)
(6.19875e-14 -2.82768e-13 0)
(-1.49217e-15 -3.45321e-13 0)
(-4.74271e-14 -4.07438e-13 0)
(-1.1257e-13 -3.79521e-13 0)
(-1.71109e-13 -3.26583e-13 0)
(-5.82344e-14 -3.16658e-13 0)
(3.43067e-14 -2.66536e-13 0)
(1.0802e-13 -2.61886e-13 0)
(1.56771e-13 -3.50017e-13 0)
(1.32568e-13 -2.54941e-13 0)
(9.51992e-14 -2.10154e-13 0)
(1.17931e-13 -1.81537e-13 0)
(6.5872e-14 -2.42891e-13 0)
(3.05374e-14 -2.70943e-13 0)
(7.342e-14 -2.01842e-13 0)
(8.17925e-14 -2.64564e-13 0)
(2.81617e-14 -1.94327e-13 0)
(-7.45591e-14 -1.60483e-13 0)
(-1.18857e-13 -2.33374e-13 0)
(-7.02489e-14 -2.62255e-13 0)
(1.58619e-14 -2.60954e-13 0)
(-3.89842e-14 -2.12142e-13 0)
(-7.32564e-14 -2.47833e-13 0)
(-6.29638e-14 -2.50932e-13 0)
(-1.03564e-13 -2.49349e-13 0)
(-1.35098e-13 -3.14374e-13 0)
(-8.91395e-14 -3.66896e-13 0)
(-5.54306e-14 -3.78161e-13 0)
(-2.47429e-14 -3.24433e-13 0)
(8.83142e-14 -2.19354e-13 0)
(1.52383e-13 -2.12835e-13 0)
(1.62252e-13 -1.8132e-13 0)
(1.33154e-13 -2.62257e-13 0)
(7.1512e-14 -2.2385e-13 0)
(-4.32041e-14 -1.85913e-13 0)
(-1.17956e-13 -1.2176e-13 0)
(-1.10348e-13 -1.33479e-13 0)
(-7.31375e-14 -1.78332e-13 0)
(-1.63905e-14 -1.76537e-13 0)
(7.05831e-14 -2.19372e-13 0)
(1.23578e-14 -3.21016e-13 0)
(2.14321e-15 -3.12865e-13 0)
(4.94869e-14 -2.81739e-13 0)
(1.04852e-13 -3.05058e-13 0)
(3.83119e-14 -3.3083e-13 0)
(-1.52331e-14 -3.14268e-13 0)
(-1.017e-15 -2.85024e-13 0)
(-3.89144e-14 -2.9058e-13 0)
(-3.65411e-14 -2.15079e-13 0)
(-2.7266e-14 -1.78096e-13 0)
(6.51417e-14 -2.41499e-13 0)
(1.46692e-13 -3.07562e-13 0)
(3.53022e-14 -3.46408e-13 0)
(5.38307e-14 -3.74795e-13 0)
(7.00368e-14 -3.402e-13 0)
(-1.32307e-14 -2.47124e-13 0)
(3.41865e-14 -2.39725e-13 0)
(7.89465e-14 -1.80821e-13 0)
(-7.81058e-15 -2.01865e-13 0)
(-1.48542e-13 -1.72432e-13 0)
(-1.53186e-13 -1.70909e-13 0)
(-1.08092e-13 -1.23394e-13 0)
(-7.48686e-14 -6.48667e-14 0)
(-9.14654e-14 -9.83039e-14 0)
(-5.04266e-14 -9.68476e-14 0)
(2.18365e-14 -1.77462e-13 0)
(4.75504e-14 -2.02535e-13 0)
(5.92111e-14 -2.87486e-13 0)
(8.01785e-14 -2.9935e-13 0)
(8.70755e-14 -2.85175e-13 0)
(6.75507e-14 -2.37138e-13 0)
(4.07827e-14 -2.66979e-13 0)
(-9.45235e-15 -3.48698e-13 0)
(-5.382e-14 -2.86905e-13 0)
(-1.49416e-13 -2.3638e-13 0)
(-1.26876e-13 -2.13676e-13 0)
(-5.46235e-14 -1.50804e-13 0)
(-1.64257e-14 -1.5303e-13 0)
(6.32341e-14 -2.61624e-13 0)
(7.27346e-14 -3.48433e-13 0)
(-1.33201e-14 -3.25112e-13 0)
(-1.37426e-14 -3.02848e-13 0)
(9.67239e-14 -2.37153e-13 0)
(8.17148e-14 -1.9762e-13 0)
(2.31591e-14 -1.65316e-13 0)
(7.72983e-14 -1.19645e-13 0)
(5.2178e-14 -1.0175e-13 0)
(7.30157e-14 -1.27811e-13 0)
(3.38727e-14 -2.00438e-13 0)
(-6.77653e-14 -1.70102e-13 0)
(-4.88579e-14 -2.32889e-13 0)
(-8.05231e-14 -1.63284e-13 0)
(-1.13544e-13 -1.75681e-13 0)
(-1.12543e-13 -1.85551e-13 0)
(2.54413e-15 -1.99957e-13 0)
(-1.5024e-14 -2.09418e-13 0)
(-7.85918e-14 -2.46075e-13 0)
(-2.33685e-14 -3.02207e-13 0)
(-1.21107e-14 -2.89182e-13 0)
(-4.29029e-14 -2.49532e-13 0)
(-7.45409e-14 -3.15529e-13 0)
(1.5755e-14 -3.2774e-13 0)
(1.03384e-13 -3.07862e-13 0)
(2.65374e-14 -2.40355e-13 0)
(2.99667e-14 -2.0059e-13 0)
(1.89341e-14 -1.81989e-13 0)
(-1.66957e-14 -2.07404e-13 0)
(-1.32294e-15 -1.00085e-13 0)
(5.72488e-14 -7.07616e-14 0)
(1.19806e-13 -3.45589e-14 0)
(7.75607e-14 -6.06052e-14 0)
(1.23669e-13 -1.19397e-13 0)
(7.28597e-14 -2.64306e-13 0)
(-7.88868e-15 -2.94426e-13 0)
(3.80373e-14 -3.54724e-13 0)
(-2.53643e-14 -4.04515e-13 0)
(-8.32855e-14 -3.67505e-13 0)
(-4.46568e-14 -3.1926e-13 0)
(-1.27987e-14 -3.38043e-13 0)
(-1.24769e-14 -3.86676e-13 0)
(-6.61704e-14 -4.27804e-13 0)
(-2.80472e-14 -3.74026e-13 0)
(1.05619e-14 -4.09316e-13 0)
(-8.0837e-15 -3.04344e-13 0)
(1.64557e-14 -2.34665e-13 0)
(1.97354e-13 -2.42631e-13 0)
(4.90387e-13 -2.50542e-13 0)
(7.09235e-13 -3.23838e-13 0)
(7.79473e-13 -3.24457e-13 0)
(7.32878e-13 -3.78613e-13 0)
(7.78528e-13 -3.35069e-13 0)
(9.17846e-13 -2.70189e-13 0)
(1.03878e-12 -3.03972e-13 0)
(-8.70763e-14 -1.53631e-13 0)