/*--------------------------------*- C++ -*----------------------------------*\
  =========                 |
  \\      /  F ield         | OpenFOAM: The Open Source CFD Toolbox
   \\    /   O peration     | Website:  https://openfoam.org
    \\  /    A nd           | Version:  13
     \\/     M anipulation  |
\*---------------------------------------------------------------------------*/
FoamFile
{
    format      ascii;
    class       volVectorField;
    location    "0.0017";
    object      U;
}
// * * * * * * * * * * * * * * * * * * * * * * * * * * * * * * * * * * * * * //

dimensions      [0 1 -1 0 0 0 0];

internalField   nonuniform List<vector> 
33333
(
(2.32245e-13 4.32845e-13 0)
(3.21983e-15 2.56113e-13 0)
(-2.04278e-13 3.46949e-13 0)
(-1.04811e-13 4.71846e-13 0)
(-1.96981e-13 4.7583e-13 0)
(-3.15787e-13 4.1339e-13 0)
(-2.12786e-13 4.67894e-13 0)
(-2.90146e-14 3.17384e-13 0)
(1.98188e-13 3.51166e-13 0)
(2.89611e-13 3.64689e-13 0)
(4.21554e-13 4.7319e-13 0)
(5.63546e-13 5.22225e-13 0)
(4.78695e-13 5.10332e-13 0)
(1.90455e-13 3.5142e-13 0)
(8.87948e-14 4.58813e-13 0)
(4.53371e-14 8.24449e-13 0)
(-3.27002e-13 8.6623e-13 0)
(-4.10469e-13 7.45049e-13 0)
(-1.45963e-13 6.82397e-13 0)
(-4.17019e-14 7.32594e-13 0)
(-3.52435e-15 6.61414e-13 0)
(-1.74751e-13 6.3547e-13 0)
(-3.41896e-13 5.40207e-13 0)
(-1.37942e-14 5.68862e-13 0)
(-7.50841e-14 5.43723e-13 0)
(-2.92902e-13 3.98386e-13 0)
(-1.79047e-13 4.01054e-13 0)
(-2.30715e-13 3.23214e-13 0)
(-3.47971e-13 4.42702e-13 0)
(-1.70872e-13 4.42506e-13 0)
(-1.97681e-14 3.49266e-13 0)
(-6.79409e-14 2.69172e-13 0)
(-2.53523e-13 2.92255e-13 0)
(-1.21879e-13 2.79458e-13 0)
(-3.6266e-15 2.20133e-13 0)
(2.2801e-13 1.70514e-13 0)
(1.9329e-13 7.34882e-14 0)
(8.47209e-14 1.64505e-13 0)
(2.96172e-13 3.98074e-13 0)
(3.55047e-13 5.8868e-13 0)
(2.35299e-13 5.15852e-13 0)
(2.94052e-13 4.34813e-13 0)
(2.95412e-13 3.56757e-13 0)
(2.98567e-13 3.61109e-13 0)
(3.22674e-13 3.44864e-13 0)
(3.39601e-13 3.85366e-13 0)
(2.29427e-13 3.70145e-13 0)
(2.70027e-14 5.76027e-13 0)
(1.72535e-13 7.23556e-13 0)
(4.66829e-14 5.86515e-13 0)
(-2.47808e-13 4.4571e-13 0)
(-4.17251e-13 5.0443e-13 0)
(-5.26718e-13 3.61176e-13 0)
(-4.33514e-13 3.53213e-13 0)
(-1.64617e-13 4.47336e-13 0)
(-3.2733e-14 4.25235e-13 0)
(1.70483e-13 5.08719e-13 0)
(2.33559e-13 3.45725e-13 0)
(1.94428e-13 4.39245e-13 0)
(2.63777e-13 5.72484e-13 0)
(3.12768e-13 5.50893e-13 0)
(2.77604e-13 3.84145e-13 0)
(-9.30852e-14 1.86675e-13 0)
(-6.14208e-14 4.17561e-13 0)
(1.81482e-13 6.62488e-13 0)
(4.6359e-14 7.62385e-13 0)
(-6.01949e-14 6.98466e-13 0)
(1.80746e-13 4.07702e-13 0)
(-2.22379e-14 1.92211e-13 0)
(-2.8266e-13 3.54739e-13 0)
(-1.80092e-13 5.22331e-13 0)
(-1.79751e-13 3.46185e-13 0)
(-1.27153e-13 5.02904e-13 0)
(1.41843e-14 7.04816e-13 0)
(-2.96826e-14 4.30059e-13 0)
(1.07085e-13 4.02911e-13 0)
(-1.9925e-13 3.04661e-13 0)
(-4.33983e-13 4.58434e-13 0)
(-4.02395e-13 5.09105e-13 0)
(-3.00869e-13 3.51156e-13 0)
(-2.11599e-14 1.77714e-13 0)
(2.18375e-13 2.24871e-13 0)
(1.00602e-13 1.15718e-13 0)
(-3.97938e-14 3.52677e-13 0)
(-8.98682e-14 4.0355e-13 0)
(-4.50532e-14 2.53555e-13 0)
(2.94496e-13 1.63007e-13 0)
(1.80653e-13 2.31367e-14 0)
(3.14131e-13 2.61994e-13 0)
(4.38362e-13 4.51339e-13 0)
(1.92938e-13 5.59815e-13 0)
(1.3819e-14 5.28175e-13 0)
(-5.00997e-14 2.41469e-13 0)
(-2.65189e-13 2.98444e-14 0)
(-5.29573e-13 1.94344e-13 0)
(-4.40779e-13 4.26168e-13 0)
(-3.84742e-13 5.38199e-13 0)
(-3.74143e-13 5.75038e-13 0)
(-1.83445e-13 5.25385e-13 0)
(-1.32529e-14 3.33754e-13 0)
(8.44164e-14 2.37974e-13 0)
(2.06234e-13 2.6274e-13 0)
(3.67398e-13 3.41943e-13 0)
(2.42621e-13 4.06481e-13 0)
(3.9237e-13 3.52442e-13 0)
(3.60548e-13 2.95973e-13 0)
(3.57479e-13 3.43028e-13 0)
(2.87129e-13 3.53012e-13 0)
(-2.23134e-13 5.06809e-13 0)
(-1.68802e-13 4.21712e-13 0)
(2.90249e-14 5.31071e-13 0)
(2.28424e-13 5.65707e-13 0)
(-6.95309e-14 3.72303e-13 0)
(-2.40403e-13 5.49989e-13 0)
(-2.12263e-13 7.36711e-13 0)
(-5.32999e-13 7.92792e-13 0)
(-3.9132e-13 5.25173e-13 0)
(-1.19349e-13 5.0491e-13 0)
(-4.55772e-14 3.64975e-13 0)
(8.81751e-14 4.71586e-13 0)
(1.87076e-13 3.66735e-13 0)
(-2.17562e-14 4.5863e-13 0)
(-3.02061e-13 3.9423e-13 0)
(-8.36013e-14 4.75492e-13 0)
(9.61332e-14 3.0313e-13 0)
(2.95772e-13 3.10784e-13 0)
(2.29419e-13 1.04666e-13 0)
(-5.17623e-14 1.78964e-13 0)
(4.30884e-14 4.25138e-13 0)
(1.9827e-13 5.75352e-13 0)
(3.61334e-13 5.14818e-13 0)
(6.78711e-13 4.75347e-13 0)
(6.6058e-13 1.39223e-13 0)
(1.28407e-13 7.25687e-14 0)
(-2.7727e-13 2.0794e-13 0)
(-2.95257e-13 4.47584e-13 0)
(-9.92653e-14 4.20358e-13 0)
(8.57447e-14 3.75358e-13 0)
(2.18899e-13 3.14597e-13 0)
(2.35597e-13 3.97307e-13 0)
(-1.01489e-13 3.2448e-13 0)
(-4.00982e-13 4.17049e-13 0)
(-2.4788e-13 5.28264e-13 0)
(-2.09311e-14 5.05953e-13 0)
(3.10075e-15 5.28719e-13 0)
(-1.68804e-14 6.35582e-13 0)
(-2.69329e-13 5.21248e-13 0)
(-6.16337e-13 4.17138e-13 0)
(-4.79431e-13 3.89362e-13 0)
(-3.371e-13 3.94704e-13 0)
(-1.62809e-13 3.4247e-13 0)
(7.01813e-14 3.26445e-13 0)
(2.51613e-13 3.63903e-13 0)
(3.26938e-13 2.19713e-13 0)
(7.84542e-14 1.1067e-13 0)
(-1.31448e-13 1.73975e-13 0)
(-2.43161e-13 1.98341e-13 0)
(-1.32693e-13 2.66627e-13 0)
(-4.73666e-14 1.93605e-13 0)
(-6.05905e-14 2.64791e-13 0)
(1.09356e-13 2.62701e-13 0)
(3.56042e-13 4.14884e-13 0)
(5.45301e-13 6.42136e-13 0)
(2.23365e-13 5.57072e-13 0)
(6.43064e-14 4.92758e-13 0)
(-7.59427e-14 2.92437e-13 0)
(-3.47866e-13 4.339e-13 0)
(3.64572e-15 2.89497e-13 0)
(-5.79422e-14 8.12779e-14 0)
(-4.59294e-14 3.096e-13 0)
(3.63712e-14 4.40578e-13 0)
(-1.6675e-13 5.00054e-13 0)
(-2.73813e-13 6.75667e-13 0)
(-2.56641e-13 8.16966e-13 0)
(-1.1e-13 7.55841e-13 0)
(1.45786e-13 8.13613e-13 0)
(3.5505e-13 8.45143e-13 0)
(5.02142e-13 7.61797e-13 0)
(6.32357e-13 5.68525e-13 0)
(3.5041e-13 4.40038e-13 0)
(3.04457e-14 3.18877e-13 0)
(1.94141e-13 4.35881e-13 0)
(1.36167e-13 5.66042e-13 0)
(-3.45398e-13 6.44399e-13 0)
(-4.15838e-13 5.77458e-13 0)
(-8.31669e-14 5.48473e-13 0)
(-3.3059e-14 7.03548e-13 0)
(-6.37543e-14 6.06532e-13 0)
(-2.15815e-13 5.76553e-13 0)
(-4.22457e-13 6.68688e-13 0)
(-4.5878e-14 6.94783e-13 0)
(-1.36954e-13 4.09284e-13 0)
(-3.4296e-13 2.15748e-13 0)
(-2.15447e-13 2.41963e-13 0)
(-1.84526e-13 1.72729e-13 0)
(-3.0492e-13 3.24603e-13 0)
(-2.2792e-13 3.03741e-13 0)
(-1.56164e-13 4.74644e-13 0)
(-6.19476e-14 4.66808e-13 0)
(-6.23292e-14 4.9851e-13 0)
(-2.26547e-14 6.19702e-13 0)
(-5.71965e-14 5.72915e-13 0)
(6.73271e-14 4.48099e-13 0)
(2.17331e-13 3.719e-13 0)
(2.85306e-13 5.17902e-13 0)
(4.98962e-13 5.91578e-13 0)
(2.79422e-13 5.84018e-13 0)
(1.44284e-13 6.89924e-13 0)
(2.57639e-13 8.61941e-13 0)
(2.56361e-13 6.90715e-13 0)
(2.37941e-13 7.07783e-13 0)
(1.86481e-13 5.45206e-13 0)
(2.63166e-13 3.63477e-13 0)
(2.58773e-13 2.49204e-13 0)
(1.49127e-13 4.24274e-13 0)
(1.82085e-13 7.17382e-13 0)
(-2.04762e-14 6.03911e-13 0)
(-1.94874e-13 4.85654e-13 0)
(-4.30908e-13 3.4045e-13 0)
(-5.79837e-13 3.81425e-13 0)
(-3.5822e-13 5.67694e-13 0)
(-1.41156e-13 5.98028e-13 0)
(-1.3456e-13 6.41205e-13 0)
(5.64674e-15 5.44059e-13 0)
(2.58364e-13 3.28942e-13 0)
(4.10633e-13 5.30551e-13 0)
(3.37611e-13 3.01379e-13 0)
(2.65916e-13 3.19028e-13 0)
(6.41782e-14 3.10995e-13 0)
(-1.34035e-13 1.86809e-13 0)
(1.61693e-13 2.79168e-13 0)
(2.69607e-13 4.08674e-13 0)
(6.17982e-14 5.86579e-13 0)
(-1.72457e-13 4.69074e-13 0)
(-6.46815e-14 2.88911e-13 0)
(1.33731e-14 2.77376e-14 0)
(-8.24122e-14 3.00687e-13 0)
(-2.59433e-13 2.64347e-13 0)
(-2.54692e-13 2.49298e-13 0)
(2.6623e-14 3.41928e-13 0)
(-9.84847e-15 5.48545e-13 0)
(-1.61123e-13 5.70485e-13 0)
(-5.26949e-15 4.63499e-13 0)
(-1.87703e-13 1.63781e-13 0)
(-2.79972e-13 4.19385e-13 0)
(-4.79673e-13 3.69539e-13 0)
(-4.82277e-13 3.67695e-13 0)
(-1.44495e-13 3.93914e-13 0)
(1.66657e-13 2.57475e-13 0)
(2.53947e-13 3.74529e-14 0)
(1.2327e-13 3.19651e-13 0)
(-1.62137e-13 3.21435e-13 0)
(-1.91023e-13 3.34714e-13 0)
(9.50587e-14 2.45974e-13 0)
(1.65786e-13 2.71266e-14 0)
(4.27546e-13 1.51591e-13 0)
(4.38827e-13 2.09065e-13 0)
(2.72894e-13 4.48237e-13 0)
(-1.43711e-14 5.35923e-13 0)
(-3.00566e-13 4.38251e-13 0)
(-3.10897e-13 2.44674e-13 0)
(-3.35795e-13 3.47405e-13 0)
(-2.92023e-13 3.1479e-13 0)
(-3.58052e-13 3.90627e-13 0)
(-4.18975e-13 4.71565e-13 0)
(-2.50349e-13 6.90816e-13 0)
(-6.88215e-14 8.04706e-13 0)
(-2.30037e-14 6.76021e-13 0)
(1.80827e-13 5.33112e-13 0)
(4.19636e-13 3.6003e-13 0)
(2.47312e-13 2.44392e-13 0)
(2.75203e-13 2.89305e-13 0)
(3.03055e-13 3.76985e-14 0)
(3.71001e-13 1.72138e-13 0)
(4.75859e-13 8.18413e-14 0)
(-7.51531e-14 3.99016e-13 0)
(-2.00654e-13 5.83029e-13 0)
(4.15414e-14 4.75487e-13 0)
(7.35958e-14 3.88081e-13 0)
(-1.61531e-13 1.00463e-13 0)
(-6.25205e-14 2.8119e-13 0)
(-1.43772e-13 4.44772e-13 0)
(-6.15071e-13 6.13247e-13 0)
(-5.4631e-13 7.69555e-13 0)
(-2.47104e-13 5.34535e-13 0)
(5.78655e-14 5.15037e-13 0)
(1.01348e-13 3.95963e-13 0)
(1.09027e-13 3.74107e-13 0)
(-8.36972e-14 3.0939e-13 0)
(-2.65807e-13 2.21932e-13 0)
(1.76315e-14 5.29319e-13 0)
(1.27686e-13 5.93238e-13 0)
(1.74992e-13 5.27685e-13 0)
(1.39149e-13 2.64087e-13 0)
(1.88703e-13 4.0837e-13 0)
(2.67799e-13 6.36156e-13 0)
(2.44433e-13 4.80765e-13 0)
(3.22023e-13 5.78146e-13 0)
(4.92205e-13 5.17915e-13 0)
(4.60293e-13 2.64322e-13 0)
(1.71219e-13 3.14393e-13 0)
(-5.26285e-14 4.47093e-13 0)
(-8.18537e-14 6.23504e-13 0)
(-1.05658e-14 6.5489e-13 0)
(1.04851e-13 6.79759e-13 0)
(1.84721e-13 6.44698e-13 0)
(1.11574e-13 4.75127e-13 0)
(-1.92237e-13 4.93278e-13 0)
(-3.58053e-13 5.69937e-13 0)
(-3.16062e-13 4.42438e-13 0)
(-9.34533e-14 4.79811e-13 0)
(6.06156e-14 3.89335e-13 0)
(2.41679e-14 6.47543e-13 0)
(-3.04766e-13 5.19347e-13 0)
(-5.34956e-13 7.19645e-13 0)
(-3.83135e-13 7.98859e-13 0)
(-3.19938e-13 9.02135e-13 0)
(-2.11077e-13 8.02525e-13 0)
(-6.15062e-15 6.29953e-13 0)
(1.18736e-13 4.73739e-13 0)
(1.32401e-13 3.63943e-13 0)
(-6.07164e-14 2.26814e-13 0)
(-2.1628e-13 2.30399e-13 0)
(-2.10359e-13 2.68315e-13 0)
(-7.32693e-14 2.10706e-13 0)
(4.85306e-16 2.78795e-13 0)
(-2.82501e-14 2.56098e-13 0)
(1.44942e-13 2.72386e-13 0)
(5.86739e-13 3.21825e-13 0)
(6.08329e-13 4.85774e-13 0)
(2.03081e-13 4.26867e-13 0)
(-8.51646e-14 4.06165e-13 0)
(-1.28914e-13 2.72106e-13 0)
(-3.0212e-13 4.49171e-13 0)
(-8.32366e-14 5.5656e-13 0)
(6.93619e-14 5.16928e-13 0)
(1.21452e-13 6.92488e-13 0)
(8.89123e-14 6.39366e-13 0)
(-5.89234e-14 7.10327e-13 0)
(-9.16854e-14 8.83673e-13 0)
(-1.2664e-13 1.05898e-12 0)
(-6.10241e-14 8.72022e-13 0)
(1.65891e-13 8.13539e-13 0)
(2.7464e-13 8.68661e-13 0)
(3.07605e-13 8.24855e-13 0)
(4.19579e-13 7.55066e-13 0)
(3.04896e-13 7.57752e-13 0)
(1.09055e-13 8.11128e-13 0)
(1.90474e-13 7.0928e-13 0)
(1.09235e-13 6.52135e-13 0)
(-3.09256e-13 6.2639e-13 0)
(-4.28094e-13 6.37375e-13 0)
(-2.80897e-14 7.19816e-13 0)
(-4.81745e-14 8.14767e-13 0)
(-1.08682e-13 7.16082e-13 0)
(-1.43073e-13 7.74016e-13 0)
(-2.85122e-13 8.76914e-13 0)
(-2.49417e-13 9.19047e-13 0)
(-3.67408e-13 6.14515e-13 0)
(-4.11998e-13 4.8561e-13 0)
(-2.0215e-13 4.26509e-13 0)
(-1.03778e-13 4.32519e-13 0)
(-2.10522e-13 5.14891e-13 0)
(-8.58531e-14 5.01802e-13 0)
(1.73778e-14 5.58691e-13 0)
(-8.70717e-14 6.5571e-13 0)
(-6.55265e-14 5.8249e-13 0)
(-3.29532e-14 5.88861e-13 0)
(-1.10555e-13 6.24293e-13 0)
(6.71338e-14 6.94997e-13 0)
(3.113e-13 6.74846e-13 0)
(3.56184e-13 6.2277e-13 0)
(4.16696e-13 6.3733e-13 0)
(3.62444e-13 7.27056e-13 0)
(3.78791e-13 8.2584e-13 0)
(2.95346e-13 1.02957e-12 0)
(1.29581e-13 1.01351e-12 0)
(1.66867e-13 9.53828e-13 0)
(3.8833e-14 8.06524e-13 0)
(1.08615e-13 6.70091e-13 0)
(1.96374e-13 5.05831e-13 0)
(3.09607e-13 5.86922e-13 0)
(2.84651e-13 5.14252e-13 0)
(-1.02631e-13 5.04632e-13 0)
(-3.76237e-13 3.58316e-13 0)
(-4.2745e-13 2.43375e-13 0)
(-3.41097e-13 4.30854e-13 0)
(-2.41702e-13 5.90309e-13 0)
(-1.7969e-13 5.51208e-13 0)
(-1.44882e-13 5.41104e-13 0)
(-1.45584e-13 5.50326e-13 0)
(2.16964e-13 5.02121e-13 0)
(2.62098e-13 4.55267e-13 0)
(1.96527e-13 3.77225e-13 0)
(4.45629e-13 4.82083e-13 0)
(1.28905e-13 4.64339e-13 0)
(-1.94094e-13 4.34133e-13 0)
(3.80002e-14 3.5368e-13 0)
(4.27946e-13 2.74473e-13 0)
(1.09298e-13 4.19093e-13 0)
(-1.82115e-13 3.44849e-13 0)
(-1.07081e-13 5.1666e-13 0)
(-5.31148e-15 4.22171e-13 0)
(-1.75659e-13 3.99872e-13 0)
(-3.18284e-13 2.66576e-13 0)
(-1.04108e-13 4.69025e-13 0)
(1.31106e-13 5.78303e-13 0)
(1.4177e-13 5.81439e-13 0)
(-1.23529e-13 6.11187e-13 0)
(-2.58289e-13 4.62068e-13 0)
(-1.65046e-13 3.17259e-13 0)
(-2.01434e-13 3.55998e-13 0)
(-4.9472e-13 3.11588e-13 0)
(-3.12018e-13 5.53312e-13 0)
(-1.45107e-13 5.41869e-13 0)
(-5.77651e-14 4.72048e-13 0)
(1.10296e-13 3.42442e-13 0)
(1.49319e-13 2.63215e-13 0)
(-9.05478e-14 2.62505e-13 0)
(-1.33891e-13 3.61764e-13 0)
(-3.73655e-14 4.20711e-13 0)
(4.08142e-14 3.52733e-13 0)
(3.71568e-13 3.73096e-13 0)
(5.97959e-13 4.5313e-13 0)
(4.1387e-13 5.29766e-13 0)
(2.20666e-14 5.26199e-13 0)
(-2.89879e-13 5.25454e-13 0)
(-2.5873e-13 5.80228e-13 0)
(-3.89677e-13 6.59233e-13 0)
(-4.09593e-13 5.62884e-13 0)
(-3.24406e-13 6.23267e-13 0)
(-2.62734e-13 6.2133e-13 0)
(1.4028e-14 6.57939e-13 0)
(-9.29764e-14 7.47368e-13 0)
(-2.00835e-13 6.30734e-13 0)
(-1.15617e-14 5.48765e-13 0)
(1.44503e-13 3.71194e-13 0)
(1.48868e-13 1.91071e-13 0)
(2.07162e-13 2.54668e-13 0)
(2.70756e-13 1.21539e-13 0)
(4.23508e-13 3.36147e-13 0)
(5.53801e-13 3.3658e-13 0)
(1.67554e-13 3.86828e-13 0)
(-1.93407e-13 6.53764e-13 0)
(-6.7079e-14 5.24755e-13 0)
(-9.04234e-14 3.73294e-13 0)
(-2.00007e-13 4.00214e-13 0)
(-9.03194e-14 4.67993e-13 0)
(-7.44189e-14 4.95342e-13 0)
(-3.28418e-13 3.68437e-13 0)
(-6.00004e-13 6.39161e-13 0)
(-3.59336e-13 5.08887e-13 0)
(-5.48387e-14 4.77974e-13 0)
(7.66859e-15 2.95482e-13 0)
(5.84158e-14 3.10017e-13 0)
(-1.88121e-13 1.36831e-13 0)
(-8.86596e-14 2.35599e-13 0)
(2.48276e-13 3.206e-13 0)
(1.3063e-13 3.61645e-13 0)
(6.44561e-14 3.17686e-13 0)
(7.65894e-14 3.25823e-13 0)
(3.21792e-13 4.17173e-13 0)
(2.27807e-13 5.00407e-13 0)
(2.00224e-13 4.54119e-13 0)
(3.65093e-13 4.22991e-13 0)
(4.14938e-13 3.93163e-13 0)
(4.48768e-13 3.84033e-13 0)
(3.26715e-13 4.77787e-13 0)
(5.31089e-14 7.51941e-13 0)
(-7.10447e-14 8.73916e-13 0)
(-6.7613e-15 9.38499e-13 0)
(7.78153e-14 9.34576e-13 0)
(5.18549e-14 1.0001e-12 0)
(5.66391e-14 8.41764e-13 0)
(-1.51937e-13 6.45824e-13 0)
(-4.61399e-13 7.4287e-13 0)
(-3.73424e-13 6.52428e-13 0)
(-1.50033e-13 5.44983e-13 0)
(1.54846e-13 4.82445e-13 0)
(1.08842e-13 5.60861e-13 0)
(-2.08821e-13 4.52898e-13 0)
(-3.19249e-13 7.27997e-13 0)
(-2.65974e-13 8.38356e-13 0)
(-3.35356e-13 9.04176e-13 0)
(-4.01385e-13 8.60926e-13 0)
(-1.67401e-13 6.94004e-13 0)
(4.2249e-14 7.12568e-13 0)
(4.17848e-14 6.15291e-13 0)
(-1.33305e-13 5.28168e-13 0)
(-1.57218e-13 4.37915e-13 0)
(-2.79815e-13 3.3901e-13 0)
(-1.08531e-13 3.17934e-13 0)
(4.02995e-14 3.13582e-13 0)
(-3.02618e-14 3.4972e-13 0)
(1.80142e-13 4.60117e-13 0)
(4.4213e-13 5.0298e-13 0)
(5.51114e-13 4.01141e-13 0)
(2.25751e-13 4.13932e-13 0)
(-2.04253e-14 4.68492e-13 0)
(-5.68627e-14 3.19225e-13 0)
(-2.53735e-13 4.14323e-13 0)
(-9.4391e-15 6.87436e-13 0)
(1.15381e-13 7.62334e-13 0)
(2.00422e-13 8.19796e-13 0)
(8.31175e-14 8.05106e-13 0)
(2.28736e-14 8.88734e-13 0)
(5.1173e-14 8.53051e-13 0)
(-1.55773e-13 9.67792e-13 0)
(-2.09346e-13 9.5342e-13 0)
(1.67502e-13 8.39639e-13 0)
(3.06035e-13 7.55125e-13 0)
(3.43429e-13 9.01085e-13 0)
(5.18996e-13 9.1127e-13 0)
(4.11683e-13 8.43133e-13 0)
(-3.84406e-16 9.72365e-13 0)
(-7.15091e-15 9.05912e-13 0)
(4.343e-14 8.29592e-13 0)
(-3.41112e-13 7.30284e-13 0)
(-3.14748e-13 7.85084e-13 0)
(1.26941e-13 9.23666e-13 0)
(-6.02459e-14 8.48343e-13 0)
(-1.16674e-13 8.4992e-13 0)
(-7.0293e-14 8.87102e-13 0)
(-2.45276e-13 9.24958e-13 0)
(-3.58464e-13 9.28637e-13 0)
(-5.49868e-13 8.76788e-13 0)
(-5.08824e-13 8.19892e-13 0)
(-2.67094e-13 8.8004e-13 0)
(-4.54346e-14 9.53827e-13 0)
(-1.28535e-13 9.71947e-13 0)
(-1.78323e-13 8.30537e-13 0)
(3.14332e-14 7.26823e-13 0)
(-4.51938e-14 8.10541e-13 0)
(-1.24824e-13 7.06708e-13 0)
(-3.6783e-14 6.52878e-13 0)
(2.12179e-14 6.06885e-13 0)
(1.00755e-13 7.88013e-13 0)
(2.16793e-13 8.58026e-13 0)
(3.46195e-13 7.91319e-13 0)
(5.10883e-13 8.42275e-13 0)
(4.18386e-13 9.27095e-13 0)
(4.55179e-13 9.75421e-13 0)
(4.03639e-13 9.96115e-13 0)
(1.67493e-13 1.09991e-12 0)
(4.90869e-14 9.87519e-13 0)
(-5.03877e-14 9.19558e-13 0)
(-1.12181e-14 8.53831e-13 0)
(1.48943e-13 7.69755e-13 0)
(1.82545e-13 6.9349e-13 0)
(1.16769e-13 3.98012e-13 0)
(-1.83314e-13 3.75032e-13 0)
(-3.93933e-13 3.79356e-13 0)
(-2.80792e-13 4.82877e-13 0)
(-2.01058e-13 6.45877e-13 0)
(-2.16883e-13 6.35697e-13 0)
(-2.53356e-13 5.73809e-13 0)
(-1.16152e-13 5.3474e-13 0)
(-1.25139e-14 7.52045e-13 0)
(1.936e-13 8.75048e-13 0)
(1.87309e-13 6.8817e-13 0)
(3.2273e-13 6.26248e-13 0)
(4.92846e-13 6.80437e-13 0)
(6.08379e-14 5.8502e-13 0)
(-2.43178e-13 6.31168e-13 0)
(7.21567e-15 5.29002e-13 0)
(3.73086e-13 5.12268e-13 0)
(1.37882e-13 5.03093e-13 0)
(-7.94498e-14 5.96416e-13 0)
(-7.61135e-14 6.33597e-13 0)
(-1.82185e-13 6.71488e-13 0)
(-2.42626e-13 6.05459e-13 0)
(-2.29939e-13 7.06207e-13 0)
(3.51892e-14 8.50281e-13 0)
(1.39608e-13 8.27349e-13 0)
(5.4966e-14 7.46253e-13 0)
(-1.49732e-13 6.4426e-13 0)
(-2.59607e-13 6.17516e-13 0)
(-2.24738e-13 7.25626e-13 0)
(-2.41561e-13 6.91836e-13 0)
(-2.9281e-13 7.20521e-13 0)
(-2.46599e-13 7.87362e-13 0)
(-1.86587e-13 7.37043e-13 0)
(-8.79961e-14 8.88788e-13 0)
(-1.72829e-14 6.93154e-13 0)
(3.58647e-14 4.91354e-13 0)
(-1.26611e-13 3.48268e-13 0)
(-2.77102e-14 4.55888e-13 0)
(7.15155e-14 6.11115e-13 0)
(1.13312e-13 7.56763e-13 0)
(4.84127e-13 7.24202e-13 0)
(5.90854e-13 7.33705e-13 0)
(3.65716e-13 6.68631e-13 0)
(-6.93313e-15 6.06978e-13 0)
(-2.21421e-13 6.96244e-13 0)
(-1.2031e-13 7.47205e-13 0)
(-3.1727e-13 8.13569e-13 0)
(-4.07932e-13 8.89392e-13 0)
(-3.09535e-13 9.10787e-13 0)
(-3.4979e-13 8.51878e-13 0)
(-8.90784e-14 7.42736e-13 0)
(-1.19676e-13 6.44024e-13 0)
(-2.21382e-13 6.70077e-13 0)
(-4.06925e-14 7.25193e-13 0)
(6.70747e-14 7.68846e-13 0)
(1.21094e-13 6.69781e-13 0)
(6.25538e-14 5.63796e-13 0)
(2.89384e-13 4.14534e-13 0)
(6.09961e-13 5.3307e-13 0)
(5.76415e-13 4.39583e-13 0)
(2.22348e-13 4.73156e-13 0)
(-1.28795e-13 3.93492e-13 0)
(-1.33106e-13 5.23935e-13 0)
(-6.26447e-14 5.90364e-13 0)
(-1.08315e-13 7.18957e-13 0)
(-3.31984e-14 7.32265e-13 0)
(-2.48979e-13 6.52874e-13 0)
(-4.12666e-13 4.62791e-13 0)
(-4.48473e-13 4.48239e-13 0)
(-3.56215e-13 5.58431e-13 0)
(-1.39307e-13 5.29802e-13 0)
(-3.37436e-14 6.24418e-13 0)
(-2.04525e-14 5.27938e-13 0)
(-2.18932e-13 4.06144e-13 0)
(-6.82678e-14 5.18316e-13 0)
(1.34565e-13 4.57682e-13 0)
(1.10739e-13 4.88678e-13 0)
(1.20118e-13 4.98477e-13 0)
(1.89649e-13 5.81016e-13 0)
(3.7576e-13 5.51199e-13 0)
(2.71307e-13 5.23371e-13 0)
(2.30531e-13 6.38902e-13 0)
(3.34598e-13 5.91225e-13 0)
(4.07027e-13 6.04039e-13 0)
(4.5146e-13 5.80464e-13 0)
(4.14385e-13 6.16942e-13 0)
(2.51763e-13 6.30679e-13 0)
(2.23696e-14 7.99531e-13 0)
(-3.51735e-14 8.61372e-13 0)
(1.02714e-13 8.40114e-13 0)
(7.28936e-14 8.84452e-13 0)
(-1.89494e-13 8.25546e-13 0)
(-2.3556e-13 6.12139e-13 0)
(-3.52032e-13 6.86322e-13 0)
(-4.95405e-13 7.62247e-13 0)
(-2.60114e-13 7.03203e-13 0)
(1.02337e-13 6.6694e-13 0)
(5.47317e-14 4.95804e-13 0)
(-9.6041e-14 5.2373e-13 0)
(-8.75564e-14 6.11474e-13 0)
(-2.91541e-13 6.66006e-13 0)
(-2.91336e-13 6.8283e-13 0)
(-3.689e-13 7.86947e-13 0)
(-1.49098e-13 7.64028e-13 0)
(3.34321e-14 6.924e-13 0)
(-1.25311e-13 5.2451e-13 0)
(-1.91305e-13 3.96117e-13 0)
(-2.93963e-13 2.92276e-13 0)
(-3.65905e-13 3.90668e-13 0)
(-1.23462e-13 5.66648e-13 0)
(5.23706e-14 5.40923e-13 0)
(1.12284e-13 7.52868e-13 0)
(2.99855e-13 9.05621e-13 0)
(4.82088e-13 8.91257e-13 0)
(5.05529e-13 7.67501e-13 0)
(2.59597e-13 6.32791e-13 0)
(-9.23006e-14 7.28543e-13 0)
(-1.75164e-13 6.18379e-13 0)
(-1.98084e-13 6.22324e-13 0)
(6.58544e-14 4.13334e-13 0)
(2.32059e-13 5.42768e-13 0)
(1.79589e-13 5.11752e-13 0)
(1.49327e-13 6.36453e-13 0)
(1.46374e-14 6.50026e-13 0)
(5.26986e-14 7.13057e-13 0)
(6.28294e-14 7.64151e-13 0)
(-1.61737e-13 9.37501e-13 0)
(-3.01739e-14 1.0255e-12 0)
(3.93881e-13 8.8462e-13 0)
(4.02306e-13 8.66364e-13 0)
(2.80943e-13 7.33449e-13 0)
(4.0635e-13 6.0334e-13 0)
(1.87687e-13 6.744e-13 0)
(4.24083e-14 8.52629e-13 0)
(-5.4506e-14 7.44329e-13 0)
(-3.81765e-13 7.32028e-13 0)
(-1.92069e-13 8.6443e-13 0)
(5.42317e-14 7.79975e-13 0)
(-1.36411e-13 7.16364e-13 0)
(-9.09784e-14 7.92219e-13 0)
(-6.67066e-14 7.2878e-13 0)
(-1.7698e-13 7.36636e-13 0)
(-3.55326e-13 7.29035e-13 0)
(-5.48225e-13 8.04656e-13 0)
(-3.39168e-13 7.96204e-13 0)
(-5.32833e-14 9.96097e-13 0)
(-3.86966e-14 9.95956e-13 0)
(-2.62431e-13 1.0029e-12 0)
(-3.27153e-13 1.11252e-12 0)
(5.85608e-14 1.08045e-12 0)
(-4.12286e-14 8.69658e-13 0)
(-2.28386e-13 7.43449e-13 0)
(-1.32398e-13 6.9069e-13 0)
(3.43104e-14 6.31654e-13 0)
(3.32314e-13 8.41887e-13 0)
(2.98936e-13 1.00877e-12 0)
(3.63393e-13 1.01333e-12 0)
(5.40804e-13 1.13151e-12 0)
(4.9454e-13 1.03952e-12 0)
(3.99501e-13 1.01293e-12 0)
(3.17487e-13 7.94148e-13 0)
(1.33038e-13 7.49313e-13 0)
(5.85459e-14 8.25118e-13 0)
(-7.99501e-14 8.55726e-13 0)
(-5.3067e-14 8.36701e-13 0)
(6.15671e-14 9.31333e-13 0)
(-1.35699e-14 7.2627e-13 0)
(-7.20443e-15 6.34014e-13 0)
(-1.7265e-13 4.94744e-13 0)
(-2.56555e-13 4.45095e-13 0)
(-1.23799e-13 7.11355e-13 0)
(-1.71916e-13 7.79656e-13 0)
(-2.93854e-13 6.6705e-13 0)
(-2.9609e-13 7.46556e-13 0)
(5.57077e-14 7.17167e-13 0)
(2.47368e-13 9.76587e-13 0)
(1.09035e-13 1.02992e-12 0)
(-6.98517e-14 7.82647e-13 0)
(1.58143e-13 7.65107e-13 0)
(4.39564e-13 5.15345e-13 0)
(1.71942e-13 4.47658e-13 0)
(-2.05531e-13 5.66728e-13 0)
(-6.35399e-14 4.86924e-13 0)
(3.26447e-13 4.86678e-13 0)
(1.76986e-13 2.88932e-13 0)
(-7.31606e-14 4.33808e-13 0)
(-1.25311e-13 4.09336e-13 0)
(-5.15302e-14 5.66274e-13 0)
(-1.55085e-13 6.65625e-13 0)
(-7.55545e-14 8.32798e-13 0)
(5.6099e-15 9.40979e-13 0)
(5.49317e-14 9.02616e-13 0)
(-2.02245e-14 7.77061e-13 0)
(-3.24036e-13 6.37851e-13 0)
(-1.61222e-13 6.2174e-13 0)
(1.25761e-14 8.72418e-13 0)
(-1.33568e-13 9.73583e-13 0)
(-3.53894e-13 1.04817e-12 0)
(-3.34864e-13 8.78873e-13 0)
(-3.60024e-14 9.91514e-13 0)
(-1.08988e-13 1.06451e-12 0)
(-2.75239e-13 8.86204e-13 0)
(-1.9105e-13 6.15261e-13 0)
(-1.8486e-13 5.99061e-13 0)
(9.09143e-14 6.47575e-13 0)
(3.099e-13 7.15146e-13 0)
(2.26108e-13 7.58033e-13 0)
(3.46024e-13 8.41867e-13 0)
(5.24989e-13 6.88423e-13 0)
(3.41887e-13 6.17509e-13 0)
(2.25914e-14 6.09952e-13 0)
(-1.8052e-13 7.06257e-13 0)
(-1.36331e-13 6.00559e-13 0)
(-2.38474e-13 6.87753e-13 0)
(-3.64234e-13 8.87272e-13 0)
(-3.14151e-13 8.53833e-13 0)
(-3.02054e-13 8.41737e-13 0)
(-1.79255e-13 9.10559e-13 0)
(-1.88526e-13 6.45324e-13 0)
(-7.64901e-14 6.97739e-13 0)
(1.50162e-13 8.03609e-13 0)
(4.47717e-14 9.73039e-13 0)
(-1.22494e-13 1.00257e-12 0)
(-1.24096e-13 7.68581e-13 0)
(1.98175e-13 6.63338e-13 0)
(4.52211e-13 4.93259e-13 0)
(4.92898e-13 3.9258e-13 0)
(1.90895e-13 4.66645e-13 0)
(-3.93609e-14 2.61723e-13 0)
(8.86817e-14 5.68182e-13 0)
(6.48575e-15 6.4332e-13 0)
(-1.35204e-13 7.1595e-13 0)
(-1.37567e-13 6.86948e-13 0)
(-3.22922e-13 5.56726e-13 0)
(-5.09535e-13 5.90395e-13 0)
(-4.60285e-13 3.34701e-13 0)
(-2.62703e-13 4.59966e-13 0)
(8.9014e-15 4.49385e-13 0)
(6.35322e-14 5.84662e-13 0)
(-1.13389e-13 5.38672e-13 0)
(-1.09707e-13 4.78423e-13 0)
(5.69964e-14 7.04198e-13 0)
(1.7614e-13 7.72042e-13 0)
(1.35943e-13 6.97984e-13 0)
(1.19484e-13 6.77177e-13 0)
(1.20493e-13 7.95478e-13 0)
(2.16859e-13 6.98139e-13 0)
(3.33376e-13 4.98722e-13 0)
(2.91121e-13 7.08804e-13 0)
(2.62151e-13 7.961e-13 0)
(3.19106e-13 8.4127e-13 0)
(3.79217e-13 7.11016e-13 0)
(3.03543e-13 6.99524e-13 0)
(2.22311e-13 4.95796e-13 0)
(9.39156e-14 5.23038e-13 0)
(-2.7863e-14 5.96057e-13 0)
(8.704e-14 5.85516e-13 0)
(3.97213e-14 4.97718e-13 0)
(-2.54564e-13 5.03051e-13 0)
(-3.62851e-13 5.2566e-13 0)
(-2.91126e-13 4.12032e-13 0)
(-2.90061e-13 5.09753e-13 0)
(-1.71269e-13 6.06516e-13 0)
(-2.10775e-14 5.98689e-13 0)
(9.99504e-15 5.0684e-13 0)
(-5.96547e-14 6.77673e-13 0)
(-2.03776e-13 5.63722e-13 0)
(-2.47067e-13 4.33775e-13 0)
(-2.2552e-13 4.33262e-13 0)
(-2.65784e-13 5.17354e-13 0)
(-2.24352e-13 5.60816e-13 0)
(-1.63711e-13 3.58011e-13 0)
(-2.67038e-13 1.8851e-13 0)
(-2.81816e-13 8.47338e-14 0)
(-1.53543e-13 8.23843e-14 0)
(7.12136e-15 2.76856e-13 0)
(5.90468e-14 4.97266e-13 0)
(2.27142e-13 5.71565e-13 0)
(3.29752e-13 7.04532e-13 0)
(2.9985e-13 7.6842e-13 0)
(3.79674e-13 8.05916e-13 0)
(3.28062e-13 7.73829e-13 0)
(1.38596e-13 5.74034e-13 0)
(-1.05223e-13 6.00876e-13 0)
(-1.86844e-13 7.48278e-13 0)
(-9.17124e-14 5.93331e-13 0)
(7.35645e-14 9.64485e-14 0)
(3.07011e-13 6.88552e-14 0)
(2.38115e-13 1.62555e-13 0)
(1.87426e-13 3.3891e-13 0)
(8.20371e-14 1.99848e-13 0)
(8.79146e-14 3.80562e-13 0)
(3.95724e-14 3.4645e-13 0)
(4.65082e-14 4.0681e-13 0)
(1.39296e-13 6.729e-13 0)
(2.2987e-13 6.31602e-13 0)
(2.02759e-13 4.21308e-13 0)
(2.07604e-13 3.57651e-13 0)
(3.44585e-13 4.26317e-13 0)
(2.62951e-13 3.67824e-13 0)
(9.53742e-14 3.0531e-13 0)
(-3.66406e-14 2.44661e-13 0)
(-2.01519e-13 4.08723e-13 0)
(-2.17315e-13 4.38745e-13 0)
(-1.48168e-14 3.54017e-13 0)
(-3.48389e-14 3.63427e-13 0)
(-1.03974e-13 3.02039e-13 0)
(-1.40818e-13 2.47679e-13 0)
(-2.3826e-13 2.01793e-13 0)
(-3.0556e-13 3.5816e-13 0)
(-5.75721e-13 3.84105e-13 0)
(-3.3981e-13 6.03806e-13 0)
(-1.65305e-14 6.71851e-13 0)
(-4.51078e-14 4.99824e-13 0)
(-9.12771e-14 5.15141e-13 0)
(-1.31084e-13 8.99366e-13 0)
(-9.03045e-14 9.06485e-13 0)
(-3.28389e-13 6.23498e-13 0)
(-2.58371e-13 6.00573e-13 0)
(-9.34132e-14 5.75919e-13 0)
(1.4726e-13 6.76009e-13 0)
(4.99381e-13 6.63867e-13 0)
(3.59313e-13 6.45481e-13 0)
(4.45665e-13 6.96973e-13 0)
(5.4977e-13 8.06983e-13 0)
(3.18761e-13 8.0245e-13 0)
(2.04012e-13 6.24409e-13 0)
(1.07216e-13 5.5482e-13 0)
(1.65076e-13 4.76288e-13 0)
(1.59929e-13 4.35556e-13 0)
(-7.7403e-15 4.73952e-13 0)
(5.05628e-14 4.79817e-13 0)
(4.56033e-14 5.71658e-13 0)
(-3.32983e-14 5.46474e-13 0)
(-1.39854e-13 5.22293e-13 0)
(-3.48083e-13 2.24618e-13 0)
(-1.39736e-13 2.35173e-13 0)
(1.803e-14 5.02212e-13 0)
(-2.06884e-13 5.69064e-13 0)
(-2.49048e-13 4.25387e-13 0)
(-1.92731e-13 5.44735e-13 0)
(6.9591e-14 6.76384e-13 0)
(2.51195e-13 6.21269e-13 0)
(-1.35177e-14 7.02044e-13 0)
(-3.70143e-14 6.4595e-13 0)
(6.87224e-14 6.84846e-13 0)
(1.24065e-13 4.69844e-13 0)
(1.14471e-13 3.32551e-13 0)
(-1.29991e-13 3.75331e-13 0)
(-1.05068e-13 3.48421e-13 0)
(1.67815e-13 1.73353e-13 0)
(1.0021e-13 -3.85077e-14 0)
(5.20239e-14 -9.50547e-14 0)
(-2.22524e-14 -7.66176e-15 0)
(5.05274e-14 1.09798e-13 0)
(-4.78998e-15 3.35658e-13 0)
(-9.51405e-15 4.31262e-13 0)
(6.29766e-14 3.94854e-13 0)
(-7.69149e-15 5.22763e-13 0)
(-1.86061e-13 3.32888e-13 0)
(-4.02558e-13 1.8098e-13 0)
(-3.21613e-14 3.19681e-13 0)
(1.82786e-13 4.86595e-13 0)
(-7.01092e-14 6.30312e-13 0)
(-4.2265e-13 7.76354e-13 0)
(-2.84388e-13 7.0501e-13 0)
(2.42287e-14 8.45155e-13 0)
(-1.35265e-13 6.27592e-13 0)
(-3.60275e-13 6.85635e-13 0)
(-2.20705e-13 6.897e-13 0)
(-1.13894e-13 8.46664e-13 0)
(4.56053e-14 6.18134e-13 0)
(2.15971e-13 4.66081e-13 0)
(2.21006e-13 3.3785e-13 0)
(3.95265e-13 3.67254e-13 0)
(3.3163e-13 3.41851e-13 0)
(2.70671e-13 1.64165e-13 0)
(9.26535e-14 2.77618e-13 0)
(-2.055e-13 3.35106e-13 0)
(-1.27795e-13 2.79878e-13 0)
(-6.69654e-14 3.58287e-13 0)
(-2.44486e-13 4.17346e-13 0)
(-3.43373e-13 4.83605e-13 0)
(-2.64005e-13 5.4787e-13 0)
(-2.46422e-13 6.36883e-13 0)
(-3.71063e-13 4.61816e-13 0)
(-2.02748e-14 5.08344e-13 0)
(2.79089e-13 5.64914e-13 0)
(1.56176e-13 7.04336e-13 0)
(-1.60488e-13 7.55925e-13 0)
(-2.13811e-13 6.2973e-13 0)
(7.60504e-14 6.89761e-13 0)
(3.77183e-13 6.41039e-13 0)
(4.70088e-13 4.88791e-13 0)
(1.05076e-13 4.5948e-13 0)
(5.6237e-14 3.69906e-13 0)
(1.67437e-13 3.75076e-13 0)
(1.7557e-14 4.71169e-13 0)
(-8.02755e-14 4.41774e-13 0)
(-1.77241e-13 2.53606e-13 0)
(-3.79034e-13 3.188e-13 0)
(-6.62574e-13 2.65673e-13 0)
(-5.41789e-13 2.20364e-13 0)
(-2.06038e-13 2.7372e-13 0)
(5.72184e-15 3.55571e-13 0)
(6.51019e-14 4.75007e-13 0)
(-1.22425e-13 4.69387e-13 0)
(-2.84207e-14 3.9026e-13 0)
(2.00201e-13 3.96114e-13 0)
(1.28035e-13 3.3166e-13 0)
(2.52967e-14 3.17351e-13 0)
(1.7063e-13 4.2394e-13 0)
(2.24545e-13 3.93984e-13 0)
(1.06275e-13 4.1613e-13 0)
(2.6454e-13 3.67282e-13 0)
(3.81696e-13 4.69919e-13 0)
(3.7411e-13 5.2076e-13 0)
(2.64228e-13 6.59094e-13 0)
(2.93726e-13 6.31508e-13 0)
(2.51828e-13 5.85896e-13 0)
(7.0058e-14 4.99885e-13 0)
(4.76543e-14 4.27886e-13 0)
(7.51443e-14 4.15252e-13 0)
(-2.00712e-15 3.56392e-13 0)
(-3.15155e-14 2.17631e-13 0)
(-1.31245e-13 1.42802e-13 0)
(-3.44846e-13 3.28202e-13 0)
(-4.65797e-13 2.66878e-13 0)
(-3.43594e-13 2.55335e-13 0)
(-1.89847e-13 3.73675e-13 0)
(1.552e-14 3.06425e-13 0)
(1.91793e-13 4.19835e-13 0)
(2.13544e-14 3.93112e-13 0)
(-2.75828e-13 2.89473e-13 0)
(-3.87931e-13 2.4999e-13 0)
(-2.64383e-13 3.26409e-13 0)
(-2.12352e-13 2.88735e-13 0)
(-2.58181e-13 3.23058e-13 0)
(-2.83184e-13 2.36901e-13 0)
(-3.29538e-13 2.38121e-13 0)
(-3.41035e-13 2.79912e-13 0)
(-2.11718e-13 2.47177e-13 0)
(2.33552e-14 1.29919e-13 0)
(1.88643e-13 2.34111e-13 0)
(3.04601e-13 2.9428e-13 0)
(3.25086e-13 3.04015e-13 0)
(3.47739e-13 3.66137e-13 0)
(4.0776e-13 5.33677e-13 0)
(3.07254e-13 4.9172e-13 0)
(1.60769e-13 3.92475e-13 0)
(3.13042e-14 3.55773e-13 0)
(-2.73367e-13 3.54065e-13 0)
(-1.25879e-13 4.35579e-13 0)
(7.48646e-14 1.72339e-13 0)
(3.27911e-13 1.49517e-13 0)
(4.0322e-13 2.16688e-13 0)
(1.7677e-13 1.93572e-13 0)
(7.89167e-14 2.01137e-13 0)
(2.28088e-13 1.32177e-13 0)
(-8.63148e-15 1.03369e-13 0)
(1.36633e-13 1.6148e-13 0)
(2.2306e-13 2.15673e-13 0)
(1.33098e-13 2.4821e-13 0)
(1.66047e-13 2.44169e-13 0)
(3.24198e-13 2.84739e-13 0)
(4.10132e-13 1.83994e-13 0)
(1.18177e-13 1.96112e-13 0)
(-8.50966e-14 1.36026e-13 0)
(6.69401e-14 4.30303e-14 0)
(-1.62896e-13 1.25654e-13 0)
(-2.74365e-13 1.97071e-13 0)
(-8.49792e-14 2.29566e-13 0)
(-1.95202e-13 1.36961e-13 0)
(-1.81849e-13 6.13903e-14 0)
(-1.38301e-13 -4.72379e-15 0)
(-1.32453e-13 3.69708e-14 0)
(-1.86217e-13 5.57137e-15 0)
(-2.66968e-13 1.91566e-13 0)
(-7.37097e-14 4.57294e-13 0)
(-2.19196e-13 4.04956e-13 0)
(-2.3697e-13 4.39664e-13 0)
(1.16075e-13 4.33647e-13 0)
(1.19611e-13 5.71888e-13 0)
(-2.65124e-13 6.11322e-13 0)
(-4.4917e-13 6.37524e-13 0)
(-2.04271e-13 7.36866e-13 0)
(-2.95084e-14 7.79302e-13 0)