/*--------------------------------*- C++ -*----------------------------------*\
  =========                 |
  \\      /  F ield         | OpenFOAM: The Open Source CFD Toolbox
   \\    /   O peration     | Website:  https://openfoam.org
    \\  /    A nd           | Version:  13
     \\/     M anipulation  |
\*---------------------------------------------------------------------------*/
FoamFile
{
    format      ascii;
    class       volVectorField;
    location    "0.0018";
    object      U;
}
// * * * * * * * * * * * * * * * * * * * * * * * * * * * * * * * * * * * * * //

dimensions      [0 1 -1 0 0 0 0];

internalField   nonuniform List<vector> 
33333
(
(4.86188e-13 2.84196e-13 0)
(6.16513e-13 -5.11618e-14 0)
(2.36331e-13 8.51738e-14 0)
(2.70622e-14 1.58022e-13 0)
(-7.96541e-14 3.22514e-13 0)
(-7.2837e-14 3.10699e-13 0)
(-1.60656e-13 4.03726e-13 0)
(9.0134e-15 3.49486e-13 0)
(8.1402e-14 2.02938e-13 0)
(-1.36716e-13 2.04421e-13 0)
(1.47785e-14 4.17088e-13 0)
(1.81525e-13 5.99241e-13 0)
(2.44626e-13 4.62037e-13 0)
(2.08128e-13 2.8873e-13 0)
(-5.43997e-14 4.06562e-13 0)
(-4.87685e-14 6.85461e-13 0)
(-1.33053e-13 6.21904e-13 0)
(-1.91684e-13 6.94175e-13 0)
(-4.15258e-14 6.24869e-13 0)
(-2.93293e-15 6.81597e-13 0)
(-8.60477e-15 6.00948e-13 0)
(-3.34527e-13 3.16065e-13 0)
(-7.68806e-13 4.62782e-13 0)
(-5.07229e-13 5.20629e-13 0)
(-3.30142e-13 4.82321e-13 0)
(-2.81191e-13 4.0642e-13 0)
(-4.80574e-14 3.83704e-13 0)
(-1.20046e-14 4.32899e-13 0)
(9.02284e-15 3.32086e-13 0)
(2.489e-13 2.86696e-13 0)
(6.0065e-14 7.99419e-14 0)
(-3.3361e-14 1.55765e-13 0)
(4.16055e-14 -2.14437e-14 0)
(-2.26271e-13 -1.99056e-14 0)
(-2.74869e-13 1.07626e-13 0)
(9.59572e-14 1.41107e-13 0)
(3.58706e-13 9.49595e-14 0)
(3.34297e-13 8.1697e-14 0)
(4.38043e-13 1.06868e-13 0)
(2.34516e-13 1.10686e-13 0)
(8.40577e-14 3.43716e-13 0)
(3.37803e-13 2.62764e-13 0)
(3.91815e-13 1.9799e-13 0)
(2.80542e-13 2.62578e-13 0)
(4.13811e-14 1.38009e-13 0)
(-8.9338e-14 2.0935e-13 0)
(5.6584e-14 1.85996e-13 0)
(2.94732e-13 1.71379e-13 0)
(2.97817e-13 7.45463e-14 0)
(-4.56582e-15 -8.74467e-15 0)
(-1.17791e-13 -8.41689e-15 0)
(-1.00254e-13 1.13308e-13 0)
(-3.05813e-13 1.73019e-13 0)
(-3.11076e-13 2.55884e-13 0)
(-5.79505e-15 2.84848e-13 0)
(-1.22761e-13 1.32895e-13 0)
(-9.95977e-14 2.86957e-13 0)
(-2.10216e-13 2.34959e-13 0)
(-3.70112e-13 3.0044e-13 0)
(-2.92116e-14 2.77403e-13 0)
(4.32147e-13 2.94546e-13 0)
(6.00495e-13 2.53683e-13 0)
(9.20233e-14 1.13442e-13 0)
(-6.60874e-14 4.06934e-13 0)
(2.00484e-13 5.64728e-13 0)
(2.97183e-13 6.93851e-13 0)
(3.94078e-13 3.76436e-13 0)
(3.11558e-14 7.62954e-14 0)
(-3.65871e-13 -5.48424e-14 0)
(-5.0055e-13 1.01228e-13 0)
(-4.29923e-13 2.54053e-13 0)
(-1.09175e-13 3.075e-13 0)
(1.09056e-13 4.45881e-13 0)
(2.02045e-13 5.71451e-13 0)
(1.24853e-13 3.51366e-13 0)
(-1.52715e-13 1.43523e-13 0)
(-1.89812e-13 1.93817e-13 0)
(1.92216e-14 2.16537e-13 0)
(-2.89056e-13 1.40441e-13 0)
(-4.06174e-13 1.92506e-13 0)
(-2.21347e-13 1.64721e-13 0)
(-5.05332e-14 2.7004e-13 0)
(1.28507e-13 2.54536e-13 0)
(-3.5266e-14 3.4769e-14 0)
(-1.88821e-13 -6.80854e-17 0)
(6.03665e-15 7.30987e-14 0)
(2.06287e-13 4.69965e-14 0)
(9.98874e-14 7.14039e-14 0)
(2.8891e-13 1.55165e-13 0)
(2.1397e-13 1.21785e-13 0)
(-6.40069e-14 4.2496e-13 0)
(-5.19599e-14 4.1333e-13 0)
(-6.18674e-15 3.72472e-13 0)
(-3.18238e-13 2.62596e-13 0)
(-6.2586e-13 4.24462e-13 0)
(-3.26918e-13 3.87457e-13 0)
(-1.59237e-13 3.19037e-13 0)
(-5.18134e-14 4.65533e-13 0)
(1.90272e-13 5.25592e-13 0)
(3.16262e-13 2.57758e-13 0)
(9.44096e-14 4.71091e-14 0)
(3.93532e-14 6.51919e-14 0)
(1.48315e-13 7.77165e-14 0)
(3.93599e-14 4.84215e-14 0)
(1.711e-13 6.65488e-14 0)
(1.70286e-13 1.02675e-14 0)
(2.59614e-13 1.06606e-13 0)
(3.54036e-13 1.63257e-14 0)
(-5.33563e-16 9.26e-14 0)
(-1.42998e-13 3.41025e-13 0)
(8.43649e-15 5.4009e-13 0)
(5.86468e-14 4.0012e-13 0)
(-1.1652e-13 2.1628e-13 0)
(-1.22092e-13 3.08181e-13 0)
(-3.60171e-13 3.80118e-13 0)
(-6.15759e-13 6.55093e-13 0)
(-4.86572e-13 5.41176e-13 0)
(-4.22697e-13 4.19058e-13 0)
(-1.88782e-13 4.18281e-13 0)
(-5.89542e-15 4.03376e-13 0)
(9.67415e-14 4.40256e-13 0)
(-8.61225e-14 2.34249e-13 0)
(-1.08935e-13 3.56916e-13 0)
(2.83715e-13 4.62234e-13 0)
(8.07065e-14 2.04333e-13 0)
(5.8127e-15 1.90592e-13 0)
(3.8149e-13 1.92606e-13 0)
(5.29406e-13 2.45662e-13 0)
(1.02014e-13 1.75467e-13 0)
(3.48009e-14 3.34716e-13 0)
(3.79374e-13 3.51841e-13 0)
(5.71934e-13 4.77933e-13 0)
(4.06488e-13 8.9734e-14 0)
(8.16479e-14 2.31903e-14 0)
(1.6125e-13 1.63609e-13 0)
(2.30596e-13 3.4604e-13 0)
(1.92105e-13 3.4845e-13 0)
(2.73964e-13 3.4485e-13 0)
(1.93659e-13 4.77838e-13 0)
(-5.47865e-14 6.099e-13 0)
(-3.35368e-13 4.33914e-13 0)
(-5.57696e-13 3.62321e-13 0)
(-4.25094e-13 3.99934e-13 0)
(-3.35859e-13 4.76774e-13 0)
(-1.88752e-13 3.64519e-13 0)
(1.5506e-13 2.51214e-13 0)
(2.28365e-13 3.03106e-14 0)
(-2.36874e-13 6.61664e-14 0)
(-4.32757e-13 2.43998e-13 0)
(-2.40447e-13 2.26603e-13 0)
(-4.055e-13 1.40778e-13 0)
(-4.83001e-13 3.25102e-13 0)
(-1.66369e-13 3.30553e-13 0)
(3.32273e-13 2.90523e-13 0)
(3.67791e-13 7.2877e-14 0)
(-1.61911e-13 1.76354e-14 0)
(-4.10274e-13 3.85181e-14 0)
(-2.6634e-13 9.99035e-14 0)
(-2.59844e-13 6.53889e-14 0)
(-2.0262e-13 2.70325e-13 0)
(2.21564e-13 3.04187e-13 0)
(5.56632e-13 3.69378e-13 0)
(6.81969e-13 3.93671e-13 0)
(3.48619e-13 2.23416e-13 0)
(1.5293e-13 4.76558e-13 0)
(-2.33281e-13 3.7508e-13 0)
(-6.34918e-13 4.29538e-13 0)
(3.25694e-13 2.59558e-13 0)
(5.7653e-13 -1.37826e-13 0)
(5.03359e-13 -6.81042e-14 0)
(4.08423e-13 4.97481e-13 0)
(-1.52519e-14 6.98721e-13 0)
(-2.37103e-13 6.62908e-13 0)
(-2.15808e-13 3.59999e-13 0)
(-1.60448e-13 4.11361e-13 0)
(-4.27459e-14 2.76775e-13 0)
(2.72737e-14 3.85957e-13 0)
(2.26712e-13 4.80583e-13 0)
(2.13294e-13 5.08655e-13 0)
(5.90221e-14 7.37579e-13 0)
(1.04896e-13 6.07577e-13 0)
(1.16314e-13 8.0802e-13 0)
(-1.12244e-13 8.07549e-13 0)
(-1.44566e-13 5.43006e-13 0)
(-1.80947e-13 5.33529e-13 0)
(-9.93077e-14 5.16385e-13 0)
(4.48438e-14 5.63183e-13 0)
(-9.74077e-14 5.48864e-13 0)
(-4.91931e-13 5.12357e-13 0)
(-6.40721e-13 5.49657e-13 0)
(-4.454e-13 8.21676e-13 0)
(-3.24648e-13 7.11066e-13 0)
(-1.9108e-13 7.10052e-13 0)
(4.07665e-14 8.26984e-13 0)
(-5.83425e-14 7.90936e-13 0)
(-1.20333e-13 8.3039e-13 0)
(5.07674e-14 5.52312e-13 0)
(-3.95117e-14 2.81441e-13 0)
(-1.52462e-13 2.98472e-13 0)
(-1.1326e-13 1.22423e-13 0)
(-1.56689e-13 1.66643e-13 0)
(-1.24042e-13 2.11846e-13 0)
(1.61034e-13 4.01203e-13 0)
(3.15244e-13 4.02706e-13 0)
(3.02325e-13 4.62186e-13 0)
(4.1767e-13 4.18226e-13 0)
(4.12544e-13 5.23068e-13 0)
(2.72879e-13 5.64438e-13 0)
(2.72992e-13 4.37208e-13 0)
(4.01782e-13 4.1908e-13 0)
(2.70252e-13 3.87697e-13 0)
(-3.62007e-14 4.54531e-13 0)
(-1.21157e-13 6.01372e-13 0)
(-7.91071e-14 6.08045e-13 0)
(1.17817e-13 3.61852e-13 0)
(2.44543e-13 1.63105e-13 0)
(-2.67474e-14 2.55432e-13 0)
(-1.0722e-13 1.34028e-13 0)
(5.23491e-14 1.8523e-13 0)
(-1.84417e-13 2.80078e-13 0)
(-2.26863e-13 6.04937e-13 0)
(-1.99952e-13 3.72259e-13 0)
(-1.75932e-13 2.82496e-13 0)
(-3.65038e-14 4.68337e-13 0)
(-2.40259e-13 2.74404e-13 0)
(-2.791e-13 3.97851e-13 0)
(1.01269e-13 4.76084e-13 0)
(5.31318e-13 5.22023e-13 0)
(4.60219e-13 4.04433e-13 0)
(1.04456e-13 2.70098e-13 0)
(1.88628e-13 5.78392e-13 0)
(3.03595e-13 8.50611e-13 0)
(1.26354e-13 7.7602e-13 0)
(1.79048e-13 4.1127e-13 0)
(-8.97619e-14 1.71403e-13 0)
(-3.6906e-13 5.7423e-14 0)
(-3.66125e-13 1.36534e-13 0)
(-2.83996e-13 3.01861e-13 0)
(-3.35636e-14 5.69702e-13 0)
(1.68127e-13 5.40739e-13 0)
(1.71798e-13 6.58239e-13 0)
(-1.13931e-13 5.96133e-13 0)
(-2.53222e-13 4.99383e-13 0)
(-1.47389e-13 4.61344e-13 0)
(-8.30209e-15 3.57899e-13 0)
(-2.75338e-13 3.32e-13 0)
(-3.28499e-13 4.50672e-13 0)
(-1.98552e-13 4.09445e-13 0)
(-7.10619e-15 3.82077e-13 0)
(2.68169e-15 2.40954e-13 0)
(-2.1568e-13 2.01009e-13 0)
(-1.17569e-13 1.06734e-13 0)
(5.00311e-14 2.19808e-13 0)
(2.52321e-13 2.23416e-13 0)
(2.10298e-13 4.00136e-13 0)
(2.5511e-13 6.05842e-13 0)
(3.26932e-13 6.07157e-13 0)
(1.00612e-13 7.35303e-13 0)
(-6.71821e-14 6.19726e-13 0)
(-9.93696e-14 6.57031e-13 0)
(-2.56001e-13 4.90699e-13 0)
(-5.53094e-13 6.34773e-13 0)
(-5.91067e-13 5.29616e-13 0)
(-2.39555e-13 5.47547e-13 0)
(6.23113e-14 5.95627e-13 0)
(9.14133e-14 6.36103e-13 0)
(8.72154e-14 5.12222e-13 0)
(4.62596e-14 4.34095e-13 0)
(6.58578e-14 3.87448e-13 0)
(1.22838e-13 3.12118e-13 0)
(2.7284e-14 3.88596e-13 0)
(9.56775e-14 2.31995e-13 0)
(1.73469e-13 1.81209e-13 0)
(2.67637e-13 3.62051e-13 0)
(3.04775e-13 2.77102e-13 0)
(1.14737e-13 3.06532e-13 0)
(1.11875e-13 2.51805e-13 0)
(7.56414e-14 3.65762e-13 0)
(-1.372e-13 4.13775e-13 0)
(-1.77301e-13 3.60044e-13 0)
(-7.57701e-14 4.22694e-13 0)
(-1.79918e-13 6.30174e-13 0)
(-5.85291e-13 7.03855e-13 0)
(-6.94394e-13 4.2236e-13 0)
(-4.46488e-13 3.63543e-13 0)
(-7.63148e-14 4.62887e-13 0)
(1.25749e-13 5.17791e-13 0)
(-2.35895e-14 4.12723e-13 0)
(-2.53445e-13 4.02809e-13 0)
(9.75131e-14 4.7178e-13 0)
(2.1197e-13 6.02862e-13 0)
(-7.19332e-14 5.1599e-13 0)
(5.89323e-14 6.1411e-13 0)
(4.30343e-13 3.78624e-13 0)
(4.47628e-13 2.09369e-13 0)
(1.19257e-13 1.1081e-13 0)
(2.36452e-13 3.29658e-13 0)
(5.31545e-13 4.99287e-13 0)
(4.52032e-13 3.34821e-13 0)
(2.7266e-13 2.7521e-13 0)
(2.0256e-13 4.0619e-13 0)
(2.87161e-13 4.8534e-13 0)
(3.27771e-13 3.48184e-13 0)
(2.40624e-13 3.8669e-13 0)
(3.85434e-13 3.86238e-13 0)
(3.42205e-13 3.56699e-13 0)
(-1.07568e-13 5.51636e-13 0)
(-5.8909e-13 4.0415e-13 0)
(-6.03564e-13 2.72212e-13 0)
(-3.71511e-13 2.18026e-13 0)
(-3.92448e-13 3.03423e-13 0)
(-3.04414e-13 2.87704e-13 0)
(2.0038e-15 4.75123e-13 0)
(1.81703e-13 2.34603e-13 0)
(-1.18669e-13 2.90754e-13 0)
(-3.0901e-13 2.97737e-13 0)
(-2.78094e-13 4.90648e-13 0)
(-3.71754e-13 4.25777e-13 0)
(-3.6854e-13 3.78603e-13 0)
(-1.78418e-13 3.17156e-13 0)
(1.71304e-13 3.16941e-13 0)
(1.96427e-13 2.37037e-14 0)
(-1.75783e-13 -9.78343e-15 0)
(-3.25165e-13 1.81719e-13 0)
(-2.98434e-13 2.08081e-13 0)
(-2.28726e-13 3.06696e-13 0)
(-4.9433e-14 4.29517e-13 0)
(3.17739e-13 3.93893e-13 0)
(5.72475e-13 3.75125e-13 0)
(5.78472e-13 3.16176e-13 0)
(4.53881e-13 4.01753e-13 0)
(2.15763e-13 3.80892e-13 0)
(-3.12908e-13 4.0705e-13 0)
(-5.99714e-13 3.86389e-13 0)
(1.59874e-13 4.29627e-13 0)
(3.87642e-13 2.1105e-13 0)
(7.70441e-13 1.57051e-13 0)
(6.49469e-13 3.72442e-13 0)
(1.24533e-13 4.33805e-13 0)
(-3.35388e-13 6.63029e-13 0)
(-3.71747e-13 6.47485e-13 0)
(-1.5308e-13 6.44641e-13 0)
(8.5118e-15 4.94289e-13 0)
(5.52693e-14 4.28024e-13 0)
(1.34742e-13 5.20389e-13 0)
(4.28502e-13 6.5126e-13 0)
(2.46219e-13 7.8975e-13 0)
(1.62873e-13 9.11374e-13 0)
(9.40698e-14 8.53568e-13 0)
(-3.25841e-13 7.32387e-13 0)
(-3.89713e-13 6.10623e-13 0)
(-1.53867e-13 4.88033e-13 0)
(9.48931e-16 6.61565e-13 0)
(-3.7906e-15 6.80323e-13 0)
(-7.52108e-14 5.93727e-13 0)
(-3.4896e-13 7.19556e-13 0)
(-4.20352e-13 7.60639e-13 0)
(-3.60922e-13 9.53696e-13 0)
(-4.52912e-13 9.21864e-13 0)
(-1.40341e-13 8.73146e-13 0)
(4.44858e-14 9.52536e-13 0)
(-1.86872e-14 7.70568e-13 0)
(-1.51247e-13 8.07317e-13 0)
(-1.68273e-13 7.08655e-13 0)
(-9.79808e-14 5.66585e-13 0)
(-1.90077e-13 5.31591e-13 0)
(-7.67756e-14 4.27253e-13 0)
(-1.24804e-13 3.78776e-13 0)
(-5.60513e-14 5.64282e-13 0)
(3.43461e-13 7.35192e-13 0)
(3.98889e-13 9.28446e-13 0)
(2.74926e-13 9.08454e-13 0)
(3.65007e-13 7.76312e-13 0)
(3.73766e-13 7.33686e-13 0)
(1.30225e-13 7.59107e-13 0)
(2.32383e-13 6.82274e-13 0)
(3.61301e-13 6.24792e-13 0)
(3.00156e-13 6.81252e-13 0)
(1.25505e-13 7.61175e-13 0)
(-4.90912e-14 6.15557e-13 0)
(-2.26392e-13 5.48854e-13 0)
(-7.73707e-14 5.06856e-13 0)
(2.45934e-13 4.66114e-13 0)
(-2.4017e-14 4.17898e-13 0)
(-1.51094e-13 4.6551e-13 0)
(1.49456e-14 5.65162e-13 0)
(-2.71902e-14 4.69809e-13 0)
(-2.97101e-13 5.31617e-13 0)
(-3.06608e-13 3.89562e-13 0)
(-2.87228e-14 6.02293e-13 0)
(-1.14645e-13 4.87436e-13 0)
(-2.82067e-13 4.27223e-13 0)
(-1.18464e-13 6.80469e-13 0)
(1.62126e-13 7.72558e-13 0)
(4.69149e-13 6.11572e-13 0)
(3.8677e-13 5.18972e-13 0)
(1.23972e-13 4.72799e-13 0)
(3.20866e-13 5.27545e-13 0)
(2.83923e-13 6.68581e-13 0)
(-4.19162e-14 6.69148e-13 0)
(-9.28443e-15 6.27152e-13 0)
(-1.58219e-13 3.84765e-13 0)
(-3.44265e-13 2.62015e-13 0)
(-3.69253e-13 2.48659e-13 0)
(-1.5041e-13 2.81111e-13 0)
(4.62984e-14 4.48912e-13 0)
(2.16202e-13 5.16635e-13 0)
(2.06347e-13 5.72133e-13 0)
(-7.94353e-14 4.95357e-13 0)
(-2.32961e-13 4.36871e-13 0)
(-2.29535e-13 5.96172e-13 0)
(-8.18795e-14 5.0063e-13 0)
(-2.29921e-13 4.8418e-13 0)
(-2.98448e-13 6.02828e-13 0)
(-2.53357e-13 5.0953e-13 0)
(-2.00035e-13 4.48292e-13 0)
(-1.25365e-13 2.21097e-13 0)
(-1.79327e-13 2.0169e-13 0)
(-1.28052e-13 2.81666e-13 0)
(1.30415e-13 4.06046e-13 0)
(2.94873e-13 6.34463e-13 0)
(3.62423e-13 5.45e-13 0)
(3.9481e-13 7.02911e-13 0)
(3.01694e-13 7.50714e-13 0)
(-2.35505e-14 6.88614e-13 0)
(-1.48522e-13 6.19808e-13 0)
(-9.76159e-14 4.75814e-13 0)
(-3.06191e-13 3.74378e-13 0)
(-5.71147e-13 4.18663e-13 0)
(-5.02437e-13 5.41542e-13 0)
(-1.11385e-13 6.0315e-13 0)
(2.32532e-14 7.38626e-13 0)
(6.33732e-14 6.29919e-13 0)
(9.70673e-14 6.20801e-13 0)
(3.65139e-14 5.60114e-13 0)
(-1.63343e-14 6.48892e-13 0)
(8.12164e-14 5.63475e-13 0)
(-5.38816e-14 5.38621e-13 0)
(-5.7672e-14 4.71267e-13 0)
(2.33161e-13 4.5939e-13 0)
(3.33202e-13 5.91382e-13 0)
(3.58414e-13 6.1854e-13 0)
(5.41978e-14 6.47325e-13 0)
(-1.39466e-13 4.81774e-13 0)
(1.07111e-13 3.42102e-13 0)
(4.68989e-15 3.30526e-13 0)
(-1.74318e-13 3.81438e-13 0)
(-1.01567e-15 3.73221e-13 0)
(-1.141e-13 5.26275e-13 0)
(-7.19249e-13 5.23866e-13 0)
(-8.10263e-13 5.42095e-13 0)
(-3.74467e-13 4.97033e-13 0)
(4.69128e-15 5.68889e-13 0)
(-5.92208e-14 4.82546e-13 0)
(-3.5145e-14 2.64523e-13 0)
(-8.62487e-14 2.82405e-13 0)
(1.01743e-13 4.2925e-13 0)
(3.02091e-13 4.12831e-13 0)
(4.23818e-14 5.03224e-13 0)
(-6.95471e-14 5.24818e-13 0)
(2.28968e-13 4.71654e-13 0)
(3.89594e-13 4.45623e-13 0)
(1.60964e-13 4.84281e-13 0)
(3.51403e-13 4.91573e-13 0)
(4.7939e-13 4.14615e-13 0)
(4.36764e-13 3.35394e-13 0)
(4.65884e-13 3.91778e-13 0)
(2.33976e-13 4.81597e-13 0)
(1.06392e-13 6.32009e-13 0)
(1.67766e-13 6.02981e-13 0)
(2.30235e-13 5.63439e-13 0)
(2.70929e-13 6.16808e-13 0)
(2.88829e-13 5.541e-13 0)
(-8.598e-14 4.5336e-13 0)
(-5.75491e-13 2.3202e-13 0)
(-6.98915e-13 4.20214e-13 0)
(-4.72722e-13 4.33718e-13 0)
(-2.75707e-13 4.60869e-13 0)
(-1.04458e-13 5.95955e-13 0)
(4.21886e-14 5.51588e-13 0)
(1.29413e-13 4.31331e-13 0)
(-1.13688e-13 5.00613e-13 0)
(-2.54115e-13 4.56482e-13 0)
(-1.64402e-13 3.81954e-13 0)
(-4.13351e-13 3.97244e-13 0)
(-4.16124e-13 4.69619e-13 0)
(-1.72453e-13 5.40461e-13 0)
(-3.04854e-14 6.95816e-13 0)
(-1.4011e-14 3.95028e-13 0)
(-1.04579e-13 1.65495e-13 0)
(-2.07607e-13 2.00382e-13 0)
(-1.41072e-13 3.10132e-13 0)
(-1.03805e-13 3.07105e-13 0)
(-1.15037e-13 4.92774e-13 0)
(2.15268e-13 5.99129e-13 0)
(4.4874e-13 6.23483e-13 0)
(6.16068e-13 5.71945e-13 0)
(4.1014e-13 6.96915e-13 0)
(1.02925e-13 5.51164e-13 0)
(-2.56331e-13 2.79433e-13 0)
(-5.1918e-13 4.38392e-13 0)
(1.12028e-13 7.12523e-13 0)
(3.24689e-13 6.43601e-13 0)
(6.64674e-13 6.35671e-13 0)
(6.25927e-13 2.68635e-13 0)
(2.63969e-13 3.25298e-13 0)
(-1.35561e-13 3.89863e-13 0)
(-2.23775e-13 8.54293e-13 0)
(-1.87991e-13 9.40964e-13 0)
(-1.59328e-13 9.08876e-13 0)
(-1.06987e-15 5.81354e-13 0)
(3.67581e-13 6.64427e-13 0)
(5.07064e-13 7.95222e-13 0)
(2.52858e-13 6.14889e-13 0)
(1.6362e-13 7.65395e-13 0)
(6.1508e-15 6.0302e-13 0)
(-3.4676e-13 7.18816e-13 0)
(-4.36719e-13 9.548e-13 0)
(-1.32611e-13 7.94588e-13 0)
(7.34586e-14 9.49235e-13 0)
(-2.38462e-14 8.74025e-13 0)
(-8.81492e-14 6.8445e-13 0)
(-3.16486e-13 6.69512e-13 0)
(-3.2007e-13 7.35302e-13 0)
(-2.78037e-13 7.10805e-13 0)
(-4.05975e-13 8.20785e-13 0)
(-1.37154e-13 9.8274e-13 0)
(-3.68589e-14 8.58692e-13 0)
(-1.31769e-13 8.40589e-13 0)
(-1.20854e-13 6.95928e-13 0)
(-1.71773e-13 7.99826e-13 0)
(-2.18383e-13 7.71744e-13 0)
(-2.7116e-13 7.77153e-13 0)
(-2.77559e-13 7.86603e-13 0)
(-7.28706e-14 6.01013e-13 0)
(2.32012e-13 7.37972e-13 0)
(6.24391e-13 8.28242e-13 0)
(4.8222e-13 9.40803e-13 0)
(1.45622e-13 8.43009e-13 0)
(2.0516e-13 9.0643e-13 0)
(3.60173e-13 7.33407e-13 0)
(1.7063e-13 8.92498e-13 0)
(8.1369e-14 9.40091e-13 0)
(3.59069e-13 8.10295e-13 0)
(4.10403e-13 8.29725e-13 0)
(5.68909e-15 7.69975e-13 0)
(-2.58356e-13 4.87963e-13 0)
(-2.37728e-13 4.13332e-13 0)
(1.46894e-14 5.83868e-13 0)
(1.47298e-13 7.38531e-13 0)
(2.11556e-15 7.08831e-13 0)
(5.23564e-14 7.66842e-13 0)
(5.7646e-14 6.76916e-13 0)
(-1.477e-13 5.99409e-13 0)
(-3.10351e-13 4.11509e-13 0)
(-1.99998e-13 5.58008e-13 0)
(-1.92741e-14 5.7722e-13 0)
(-2.095e-13 6.43544e-13 0)
(-1.35399e-13 6.81426e-13 0)
(3.39991e-14 6.28328e-13 0)
(5.5659e-14 6.3695e-13 0)
(3.22421e-13 5.54939e-13 0)
(3.71851e-13 4.94287e-13 0)
(1.6093e-13 6.27913e-13 0)
(3.65907e-13 5.7717e-13 0)
(3.3777e-13 3.76233e-13 0)
(-1.0331e-14 4.16331e-13 0)
(-1.4637e-13 5.40598e-13 0)
(-3.48763e-13 3.94602e-13 0)
(-4.33987e-13 5.51282e-13 0)
(-3.34392e-13 5.92099e-13 0)
(-1.31435e-13 4.5914e-13 0)
(1.22681e-13 4.72336e-13 0)
(3.43762e-13 4.82835e-13 0)
(1.52525e-13 4.99107e-13 0)
(-1.96146e-13 4.85302e-13 0)
(-1.17476e-13 4.25417e-13 0)
(-9.39954e-14 4.84231e-13 0)
(-1.31834e-13 4.0088e-13 0)
(-1.72715e-13 3.52179e-13 0)
(-2.40177e-13 5.27161e-13 0)
(-2.45641e-13 6.0981e-13 0)
(-2.83186e-13 7.79037e-13 0)
(-3.10436e-13 5.94096e-13 0)
(-2.24628e-13 4.32761e-13 0)
(2.2869e-14 4.53963e-13 0)
(3.80911e-13 4.93508e-13 0)
(3.54566e-13 6.81869e-13 0)
(2.96017e-13 5.90666e-13 0)
(4.37315e-13 6.4638e-13 0)
(2.99308e-13 5.46858e-13 0)
(-1.01294e-14 6.65957e-13 0)
(-2.79458e-13 8.04842e-13 0)
(-2.33325e-13 6.53751e-13 0)
(-3.11575e-13 6.20319e-13 0)
(-4.89254e-13 4.81064e-13 0)
(-4.19621e-13 5.448e-13 0)
(-2.88767e-14 5.1442e-13 0)
(7.83038e-14 5.72795e-13 0)
(-2.39789e-15 7.05448e-13 0)
(1.83114e-14 6.86987e-13 0)
(8.02036e-14 5.55295e-13 0)
(5.40718e-14 5.39746e-13 0)
(1.38386e-14 5.9795e-13 0)
(-8.55206e-14 4.52364e-13 0)
(-8.13718e-14 6.26856e-13 0)
(2.25103e-13 5.78502e-13 0)
(4.13676e-13 6.65151e-13 0)
(3.82705e-13 6.5178e-13 0)
(9.33972e-15 6.00037e-13 0)
(-2.16863e-13 6.85919e-13 0)
(-1.10526e-14 7.1512e-13 0)
(-7.04921e-14 6.49278e-13 0)
(-1.96375e-13 6.46689e-13 0)
(-1.37135e-14 4.90689e-13 0)
(-8.87554e-14 3.40578e-13 0)
(-6.02269e-13 4.7228e-13 0)
(-7.09631e-13 8.43708e-13 0)
(-3.58982e-13 7.68349e-13 0)
(-3.21786e-14 9.02469e-13 0)
(-1.34995e-13 7.73788e-13 0)
(-2.35137e-13 5.0945e-13 0)
(-5.98152e-14 3.98335e-13 0)
(1.80623e-13 5.57177e-13 0)
(2.69245e-13 6.4735e-13 0)
(-9.06965e-15 6.64944e-13 0)
(-8.75395e-16 6.70976e-13 0)
(3.37488e-13 6.56178e-13 0)
(4.8944e-13 6.55183e-13 0)
(1.61299e-13 6.118e-13 0)
(2.03679e-13 5.77631e-13 0)
(4.00488e-13 6.33929e-13 0)
(3.83491e-13 6.70788e-13 0)
(3.64588e-13 6.48323e-13 0)
(3.47789e-13 5.6925e-13 0)
(2.84745e-13 8.25975e-13 0)
(9.90625e-14 9.24095e-13 0)
(2.04646e-13 9.64515e-13 0)
(3.91909e-13 9.13685e-13 0)
(2.21517e-13 7.01607e-13 0)
(-3.4152e-13 4.9314e-13 0)
(-6.00494e-13 4.85316e-13 0)
(-5.3293e-13 6.97272e-13 0)
(-4.43689e-13 8.33371e-13 0)
(-2.28817e-13 8.62425e-13 0)
(-6.48185e-14 8.79476e-13 0)
(-5.6821e-14 7.48576e-13 0)
(1.1641e-13 6.88212e-13 0)
(-8.74609e-14 5.86211e-13 0)
(-3.81291e-13 6.3286e-13 0)
(-2.78803e-13 4.98856e-13 0)
(-2.97214e-13 5.62753e-13 0)
(-2.03404e-13 7.84284e-13 0)
(7.27084e-14 8.36846e-13 0)
(-1.14037e-13 8.77393e-13 0)
(-3.95335e-13 6.46065e-13 0)
(-2.55736e-13 4.15119e-13 0)
(-1.31145e-13 3.97289e-13 0)
(-1.26136e-13 5.786e-13 0)
(-1.86749e-14 4.74451e-13 0)
(1.67108e-13 7.22672e-13 0)
(2.96067e-13 9.67166e-13 0)
(4.61657e-13 1.01685e-12 0)
(6.28978e-13 8.97316e-13 0)
(4.03157e-13 7.45175e-13 0)
(-1.29098e-13 7.16809e-13 0)
(-3.6735e-13 5.65198e-13 0)
(-3.11439e-13 7.50134e-13 0)
(2.00721e-13 8.20978e-13 0)
(3.48572e-13 7.00505e-13 0)
(4.02368e-13 7.45286e-13 0)
(3.42665e-13 4.57317e-13 0)
(2.41376e-13 4.88486e-13 0)
(1.88349e-13 4.26126e-13 0)
(1.9905e-13 7.90651e-13 0)
(-6.40242e-14 9.2421e-13 0)
(-2.40367e-13 9.09415e-13 0)
(-1.66921e-13 8.29625e-13 0)
(3.36585e-13 7.85822e-13 0)
(3.84106e-13 6.06038e-13 0)
(2.38082e-13 4.72259e-13 0)
(1.66204e-13 5.59254e-13 0)
(7.64624e-14 4.06335e-13 0)
(-1.62291e-14 7.23979e-13 0)
(-3.38364e-13 8.95944e-13 0)
(-1.55919e-13 9.82144e-13 0)
(1.86419e-14 9.25676e-13 0)
(-2.40417e-13 8.64512e-13 0)
(-2.07525e-13 7.69125e-13 0)
(-3.00753e-13 6.14895e-13 0)
(-3.53924e-13 7.11316e-13 0)
(-2.69182e-13 7.12943e-13 0)
(-1.78325e-13 8.09753e-13 0)
(-1.32413e-13 8.61298e-13 0)
(-1.14594e-13 6.54425e-13 0)
(-1.29422e-13 7.71597e-13 0)
(-1.85163e-13 7.45015e-13 0)
(-1.33953e-13 8.69214e-13 0)
(-1.58165e-13 9.38717e-13 0)
(-1.3198e-13 1.02591e-12 0)
(-2.87037e-13 1.00167e-12 0)
(-1.95527e-13 9.00683e-13 0)
(2.52628e-13 1.00551e-12 0)
(6.32555e-13 9.34808e-13 0)
(4.48935e-13 8.47052e-13 0)
(2.08402e-13 8.99514e-13 0)
(1.99788e-13 1.06604e-12 0)
(3.41558e-13 9.11438e-13 0)
(2.83775e-13 9.16852e-13 0)
(5.05906e-15 1.00008e-12 0)
(2.22997e-13 8.77457e-13 0)
(3.10714e-13 7.51502e-13 0)
(-1.51852e-13 6.8193e-13 0)
(-3.36097e-13 5.85201e-13 0)
(-1.05907e-13 6.50454e-13 0)
(2.15928e-13 7.3394e-13 0)
(3.43155e-13 8.23584e-13 0)
(6.0712e-14 8.27337e-13 0)
(-1.34853e-13 8.81584e-13 0)
(-1.02366e-13 6.31395e-13 0)
(-2.31785e-13 7.14722e-13 0)
(-3.38492e-13 5.82553e-13 0)
(-1.2602e-13 6.51506e-13 0)
(8.35012e-14 6.15701e-13 0)
(-4.91388e-14 7.55135e-13 0)
(-3.19358e-13 6.7623e-13 0)
(-1.33109e-13 5.5871e-13 0)
(7.98765e-14 5.83396e-13 0)
(3.24485e-13 7.28897e-13 0)
(5.47128e-13 6.5869e-13 0)
(3.20826e-13 7.56071e-13 0)
(1.25064e-13 6.46658e-13 0)
(2.00526e-13 3.98524e-13 0)
(8.65595e-14 2.88526e-13 0)
(-1.60303e-13 3.22484e-13 0)
(-1.52929e-13 3.25099e-13 0)
(-1.8945e-13 5.9054e-13 0)
(-4.47213e-13 6.60589e-13 0)
(-2.9727e-13 6.03442e-13 0)
(4.09769e-14 5.60435e-13 0)
(2.21417e-13 5.87413e-13 0)
(2.22659e-13 4.31074e-13 0)
(-1.42468e-13 3.82438e-13 0)
(-1.85022e-13 4.92487e-13 0)
(-2.18149e-13 3.6951e-13 0)
(-1.92028e-13 5.18181e-13 0)
(-6.92376e-14 4.67119e-13 0)
(-8.81049e-14 4.41929e-13 0)
(-8.55321e-15 5.62857e-13 0)
(-1.57739e-13 8.90848e-13 0)
(-4.63359e-13 8.74188e-13 0)
(-3.79973e-13 6.98211e-13 0)
(-3.76637e-14 6.80534e-13 0)
(3.72593e-13 6.30043e-13 0)
(3.49961e-13 5.66559e-13 0)
(3.29999e-13 6.24239e-13 0)
(3.74539e-13 5.73404e-13 0)
(3.06685e-13 5.62999e-13 0)
(1.94141e-13 6.29258e-13 0)
(-1.56949e-13 7.0733e-13 0)
(-2.62104e-13 9.06725e-13 0)
(-4.62082e-13 8.51811e-13 0)
(-7.02077e-13 6.86401e-13 0)
(-4.90003e-13 6.84315e-13 0)
(-9.01999e-14 7.18997e-13 0)
(2.14669e-13 6.17353e-13 0)
(1.53778e-13 6.65881e-13 0)
(-5.26142e-14 6.0349e-13 0)
(-7.9557e-14 6.21557e-13 0)
(5.6848e-14 4.68513e-13 0)
(-2.30907e-14 6.63146e-13 0)
(-1.14018e-13 5.49771e-13 0)
(4.993e-14 7.16435e-13 0)
(2.80916e-13 7.69096e-13 0)
(4.53408e-13 5.9608e-13 0)
(3.24176e-13 5.33144e-13 0)
(6.28411e-14 5.08199e-13 0)
(-7.85597e-15 8.20164e-13 0)
(8.31086e-14 8.51556e-13 0)
(-8.13295e-14 8.45202e-13 0)
(-4.06763e-13 8.10911e-13 0)
(-2.96889e-13 6.35045e-13 0)
(-8.32702e-14 5.24756e-13 0)
(-2.43341e-13 6.18123e-13 0)
(-5.12552e-13 7.77748e-13 0)
(-2.93105e-13 8.633e-13 0)
(-3.89761e-14 9.18318e-13 0)
(-3.89813e-13 9.23903e-13 0)
(-3.92324e-13 8.44504e-13 0)
(-3.49911e-14 7.78882e-13 0)
(3.30373e-13 7.70957e-13 0)
(3.90241e-13 8.60167e-13 0)
(9.11935e-14 7.31287e-13 0)
(-6.36533e-14 9.03013e-13 0)
(1.78287e-13 7.72654e-13 0)
(3.26126e-13 7.07212e-13 0)
(7.06792e-14 5.90953e-13 0)
(3.68043e-13 7.10044e-13 0)
(5.10745e-13 7.91115e-13 0)
(4.48426e-13 9.5253e-13 0)
(3.2315e-13 9.18316e-13 0)
(3.71488e-13 7.59789e-13 0)
(4.14874e-13 8.07166e-13 0)
(1.90655e-13 8.07888e-13 0)
(1.38324e-13 8.46151e-13 0)
(4.61035e-14 7.20752e-13 0)
(-6.9071e-14 3.57511e-13 0)
(-2.63601e-13 1.59885e-13 0)
(-3.19456e-13 3.38977e-13 0)
(-3.26185e-13 5.61666e-13 0)
(-3.45848e-13 6.1972e-13 0)
(-1.94075e-13 6.52233e-13 0)
(-1.03147e-13 6.64354e-13 0)
(-1.55697e-13 6.52602e-13 0)
(-9.65453e-14 5.33525e-13 0)
(-1.33225e-13 3.74477e-13 0)
(-2.89357e-13 5.55475e-13 0)
(-2.06458e-13 6.01813e-13 0)
(-1.1665e-13 6.61992e-13 0)
(-1.50665e-13 6.92062e-13 0)
(-1.15991e-13 6.65329e-13 0)
(-2.09292e-13 4.91648e-13 0)
(-4.78466e-13 4.66658e-13 0)
(-3.41251e-13 5.68688e-13 0)
(2.8206e-15 5.90655e-13 0)
(-4.04686e-14 6.48174e-13 0)
(2.8874e-14 7.79822e-13 0)
(4.4228e-13 8.27533e-13 0)
(4.81721e-13 9.22103e-13 0)
(3.5347e-13 9.44763e-13 0)
(3.29456e-13 7.44766e-13 0)
(2.40325e-13 4.38174e-13 0)
(-5.77466e-14 5.13056e-13 0)
(-1.63116e-13 4.96055e-13 0)
(-1.19604e-13 6.80304e-13 0)
(8.16139e-14 5.21753e-13 0)
(2.58465e-13 5.23814e-13 0)
(3.41228e-13 4.53455e-13 0)
(2.8928e-13 4.84263e-13 0)
(2.18329e-13 4.49534e-13 0)
(2.57813e-13 4.14961e-13 0)
(3.66888e-13 4.75642e-13 0)
(8.80165e-15 5.60429e-13 0)
(-2.24095e-13 4.77916e-13 0)
(-8.79282e-14 5.78316e-13 0)
(2.28589e-13 5.99096e-13 0)
(2.27572e-13 5.11087e-13 0)
(1.96766e-13 5.79522e-13 0)
(7.4412e-14 6.08077e-13 0)
(9.93784e-14 5.14751e-13 0)
(1.17952e-13 4.71666e-13 0)
(-2.02767e-13 5.63478e-13 0)
(-1.44328e-13 7.56249e-13 0)
(2.47329e-15 6.85204e-13 0)
(-1.56522e-13 6.52622e-13 0)
(-3.13413e-13 7.78515e-13 0)
(-3.76142e-13 6.23834e-13 0)
(-2.57179e-13 7.49123e-13 0)
(-1.95528e-13 6.9982e-13 0)
(-2.35508e-13 7.94001e-13 0)
(-3.0363e-13 7.38627e-13 0)
(-1.39223e-13 6.95515e-13 0)
(-4.44341e-14 7.48005e-13 0)
(-8.69646e-14 8.38058e-13 0)
(-2.39658e-14 9.67185e-13 0)
(-7.39925e-14 1.02128e-12 0)
(-1.70654e-13 1.07882e-12 0)
(-3.54308e-13 8.91654e-13 0)
(-1.04681e-13 9.32593e-13 0)
(2.84242e-13 1.011e-12 0)
(5.00009e-13 9.17385e-13 0)
(4.65288e-13 7.37345e-13 0)
(3.61232e-13 9.09189e-13 0)
(2.81828e-13 9.81887e-13 0)
(1.83822e-13 9.49345e-13 0)
(1.7637e-13 7.65866e-13 0)
(5.09866e-14 7.75066e-13 0)
(1.24634e-13 8.57139e-13 0)
(1.6502e-13 6.73258e-13 0)
(-1.07496e-13 5.47252e-13 0)
(-2.11651e-13 7.58776e-13 0)
(-4.23794e-14 8.27963e-13 0)
(1.82814e-13 9.00193e-13 0)
(2.6429e-13 7.50506e-13 0)
(6.42356e-14 6.89158e-13 0)
(-1.43971e-13 7.16969e-13 0)
(-1.13137e-13 6.80536e-13 0)
(-1.81761e-13 6.12738e-13 0)
(-3.80936e-13 6.53439e-13 0)
(-1.41383e-13 7.11299e-13 0)
(1.50034e-13 7.69898e-13 0)
(-1.42105e-13 7.81354e-13 0)
(-3.73104e-13 8.51439e-13 0)
(-8.78584e-14 8.41992e-13 0)
(1.74865e-13 8.33187e-13 0)
(4.44874e-13 9.74797e-13 0)
(4.98377e-13 9.05534e-13 0)
(1.49455e-13 7.13316e-13 0)
(-4.11722e-14 5.47425e-13 0)
(1.23473e-14 3.72271e-13 0)
(-7.83923e-15 1.75278e-13 0)
(-1.57673e-13 2.23999e-13 0)
(-1.58004e-13 2.66115e-13 0)
(-1.38926e-13 2.43531e-13 0)
(-3.30984e-13 2.62263e-13 0)
(-2.71283e-13 5.43502e-13 0)
(9.68205e-14 6.07281e-13 0)
(1.89213e-13 7.93848e-13 0)
(-3.36242e-16 5.50534e-13 0)
(-2.12333e-13 4.58766e-13 0)
(-1.4184e-13 4.35911e-13 0)
(-2.56097e-14 4.74608e-13 0)
(-1.58663e-14 6.67611e-13 0)
(-2.21143e-13 7.54698e-13 0)
(-1.17219e-13 7.7824e-13 0)
(1.43148e-13 7.89e-13 0)
(-2.49631e-14 8.32049e-13 0)
(-5.34249e-13 8.79417e-13 0)
(-4.67934e-13 9.24725e-13 0)
(-7.29859e-14 8.53242e-13 0)
(2.93147e-13 7.79369e-13 0)
(3.8164e-13 6.04867e-13 0)
(2.97295e-13 6.25271e-13 0)
(3.20149e-13 3.96729e-13 0)
(3.09751e-13 3.98931e-13 0)
(1.36948e-13 3.1771e-13 0)
(-5.58521e-14 3.37527e-13 0)
(-1.51943e-13 6.27214e-13 0)
(-4.16266e-13 6.43097e-13 0)
(-6.4509e-13 8.13814e-13 0)
(-4.40368e-13 9.59556e-13 0)
(-8.26648e-14 1.03922e-12 0)
(7.28511e-14 8.72443e-13 0)
(-2.44844e-15 5.99386e-13 0)
(-8.93701e-14 5.49858e-13 0)
(-2.94608e-14 5.84498e-13 0)
(1.1817e-13 6.7971e-13 0)
(6.42353e-14 7.10849e-13 0)
(-8.4243e-14 8.03602e-13 0)
(1.39146e-13 7.80263e-13 0)
(1.67623e-13 7.91228e-13 0)
(2.48547e-13 6.35714e-13 0)
(3.02244e-13 5.95497e-13 0)
(1.94795e-13 5.46223e-13 0)
(1.42349e-13 6.35477e-13 0)
(4.64995e-14 6.72634e-13 0)
(-1.38809e-13 6.21916e-13 0)
(-4.23241e-13 6.77835e-13 0)
(-2.63211e-13 7.76931e-13 0)
(-1.2567e-13 5.99185e-13 0)
(-3.48889e-13 4.63302e-13 0)
(-4.52795e-13 3.64519e-13 0)
(-2.34603e-13 6.20696e-13 0)
(-6.08554e-16 6.75771e-13 0)
(-2.73904e-13 8.16576e-13 0)
(-3.69836e-13 1.14346e-12 0)
(-4.01286e-14 1.04174e-12 0)
(2.79038e-13 9.86111e-13 0)
(2.36959e-13 7.45602e-13 0)
(6.93951e-14 6.96577e-13 0)
(7.26798e-14 7.84367e-13 0)
(1.70706e-13 8.2513e-13 0)
(2.26082e-13 6.84623e-13 0)
(1.12855e-13 8.15905e-13 0)
(3.35843e-13 8.57098e-13 0)
(5.15638e-13 7.70576e-13 0)
(5.10461e-13 8.15616e-13 0)
(2.07037e-13 7.05131e-13 0)
(2.4523e-13 7.22118e-13 0)
(3.30495e-13 4.10336e-13 0)
(1.60039e-13 1.8215e-13 0)
(1.04456e-13 2.56175e-13 0)
(-1.02657e-13 3.14979e-13 0)
(-3.78675e-13 2.44365e-13 0)
(-3.80267e-13 1.22814e-13 0)
(-2.30226e-13 1.29502e-13 0)
(-2.44877e-13 7.75039e-14 0)
(-2.76274e-13 1.49882e-13 0)
(-1.42044e-13 1.30594e-13 0)
(-6.46883e-14 1.90149e-13 0)
(-1.73963e-13 1.88514e-13 0)
(-1.65034e-13 2.01931e-13 0)
(-6.08486e-14 1.94552e-13 0)
(-1.8379e-13 2.24766e-13 0)
(-1.8963e-13 3.19779e-13 0)
(-1.66538e-13 2.62189e-13 0)
(-2.04871e-13 2.09636e-13 0)
(-1.67065e-13 3.22361e-13 0)
(-2.21897e-13 3.3694e-13 0)
(-3.22631e-13 4.30735e-13 0)
(-2.23543e-13 5.11416e-13 0)
(-4.07619e-14 5.61045e-13 0)
(9.26766e-15 5.57151e-13 0)
(1.51501e-13 7.21242e-13 0)
(3.97196e-13 7.4165e-13 0)
(4.60927e-13 6.08979e-13 0)
(2.73055e-13 4.44181e-13 0)
(1.35525e-13 4.26097e-13 0)
(1.6541e-13 3.65577e-13 0)
(-7.14294e-14 3.1295e-13 0)
(-1.64211e-13 2.52559e-13 0)
(-8.29035e-15 1.90342e-13 0)
(8.96854e-14 3.47925e-13 0)
(3.06789e-13 3.8153e-13 0)
(3.40259e-13 2.32523e-13 0)
(2.39885e-13 2.49407e-13 0)
(1.59008e-13 2.08074e-13 0)
(2.89258e-13 2.71252e-13 0)
(3.64219e-13 3.13137e-13 0)
(-3.86641e-14 3.64523e-13 0)
(-2.57921e-13 3.42362e-13 0)
(-1.7165e-15 4.8044e-13 0)
(2.9407e-13 4.80445e-13 0)
(3.12435e-13 4.08887e-13 0)
(2.59884e-13 4.16387e-13 0)
(5.50747e-14 4.74041e-13 0)
(-3.89032e-14 4.96536e-13 0)
(4.77943e-14 3.75342e-13 0)
(-5.24605e-15 4.04624e-13 0)
(-4.43325e-14 4.76993e-13 0)
(-6.46197e-14 4.65162e-13 0)
(-1.35873e-13 4.3853e-13 0)
(-2.85273e-13 4.52577e-13 0)
(-3.47828e-13 4.45212e-13 0)
(-2.47037e-13 5.37667e-13 0)
(-2.31707e-13 5.38198e-13 0)
(-1.50578e-13 5.19572e-13 0)
(-2.52919e-13 6.11668e-13 0)
(-1.35773e-13 7.50287e-13 0)
(-3.02384e-14 6.88721e-13 0)
(1.52555e-14 6.61654e-13 0)
(2.26108e-14 6.82664e-13 0)
(-6.98365e-14 7.90213e-13 0)
(-2.60698e-13 7.70448e-13 0)
(-3.59131e-13 7.98862e-13 0)
(-5.94126e-14 9.46153e-13 0)