/*--------------------------------*- C++ -*----------------------------------*\
  =========                 |
  \\      /  F ield         | OpenFOAM: The Open Source CFD Toolbox
   \\    /   O peration     | Website:  https://openfoam.org
    \\  /    A nd           | Version:  13
     \\/     M anipulation  |
\*---------------------------------------------------------------------------*/
FoamFile
{
    format      ascii;
    class       volVectorField;
    location    "0.0002";
    object      U;
}
// * * * * * * * * * * * * * * * * * * * * * * * * * * * * * * * * * * * * * //

dimensions      [0 1 -1 0 0 0 0];

internalField   nonuniform List<vector> 
33334
(
(4.60516e-14 1.59152e-14 0)
(7.25572e-14 4.77898e-14 0)
(-1.25061e-14 6.08782e-14 0)
(-1.2378e-14 5.16154e-14 0)
(5.29243e-14 4.51623e-14 0)
(1.846e-13 -1.46958e-14 0)
(4.66552e-14 -6.43599e-14 0)
(-6.14498e-14 -3.0046e-14 0)
(-7.2309e-14 1.99652e-14 0)
(1.32891e-14 1.65838e-14 0)
(-7.70233e-14 1.00886e-13 0)
(8.16313e-15 9.88796e-14 0)
(-6.12691e-14 4.15951e-14 0)
(2.40761e-15 -3.23532e-14 0)
(3.03044e-14 -4.92911e-14 0)
(7.83997e-14 -4.74586e-14 0)
(5.05935e-14 -5.7231e-14 0)
(-6.01193e-14 -1.47834e-14 0)
(1.55537e-14 3.94765e-14 0)
(7.34731e-14 -4.27386e-15 0)
(6.44011e-14 -2.81758e-14 0)
(1.18385e-13 -3.94336e-14 0)
(4.39291e-14 -6.30161e-15 0)
(-2.58294e-14 7.91433e-14 0)
(1.63854e-14 -2.61185e-15 0)
(4.75459e-14 -9.37735e-14 0)
(8.63898e-15 -9.79469e-14 0)
(-1.09548e-14 -7.42303e-14 0)
(3.44695e-14 -6.45767e-14 0)
(2.22848e-14 -3.38794e-14 0)
(2.31442e-14 -2.68002e-14 0)
(-6.25061e-14 -2.72918e-14 0)
(-5.33095e-14 -1.50861e-15 0)
(-3.75573e-14 -4.63477e-14 0)
(-5.57108e-14 -7.71747e-14 0)
(2.74858e-15 -5.89648e-14 0)
(-9.637e-14 -1.12907e-13 0)
(-7.71949e-14 -3.66853e-15 0)
(1.12395e-14 -1.12576e-14 0)
(1.52875e-13 -3.58323e-14 0)
(7.45029e-14 -1.9383e-14 0)
(5.71275e-14 9.9978e-16 0)
(5.03608e-14 -6.13291e-17 0)
(-4.74522e-14 -3.87376e-14 0)
(-3.50533e-14 -1.6685e-14 0)
(-6.03792e-14 -7.1689e-14 0)
(2.63229e-14 -3.58722e-14 0)
(5.1389e-14 -6.8852e-14 0)
(-8.23219e-14 -4.10315e-14 0)
(-2.89968e-15 -3.09439e-14 0)
(8.12608e-15 -4.47088e-14 0)
(-4.74388e-14 -3.20161e-14 0)
(-1.91082e-14 -4.79714e-14 0)
(-6.99589e-14 2.21153e-14 0)
(-2.36686e-14 4.30843e-14 0)
(9.98895e-14 -7.08761e-14 0)
(5.02601e-14 -1.826e-13 0)
(9.49464e-14 -1.70083e-13 0)
(6.89821e-14 -1.42155e-13 0)
(-4.00243e-14 -5.48097e-14 0)
(-8.1452e-14 -5.11089e-14 0)
(-3.18043e-14 1.99606e-14 0)
(-1.54392e-14 1.05014e-14 0)
(-7.20912e-15 8.0985e-14 0)
(-2.85523e-14 2.37784e-15 0)
(-6.28917e-14 1.91148e-14 0)
(-4.88689e-14 -3.94583e-15 0)
(-8.1192e-14 -3.71697e-15 0)
(-8.58398e-14 -6.33665e-14 0)
(1.05063e-13 -8.04508e-14 0)
(8.15028e-14 -4.69678e-14 0)
(-3.05177e-14 -1.20357e-14 0)
(-2.74527e-14 1.36664e-14 0)
(-7.14074e-14 1.63064e-14 0)
(-1.37411e-14 -8.90419e-14 0)
(-9.86763e-14 -4.26073e-14 0)
(-1.12341e-13 1.95929e-14 0)
(-7.89739e-14 -6.23482e-15 0)
(-1.16995e-13 -3.27093e-14 0)
(5.5982e-13 -1.1203e-13 0)
(1.53157e-09 1.79267e-12 0)
(3.87931e-06 8.14704e-10 0)
(0.0011891 6.62655e-08 0)
(0.0617438 1.41764e-06 0)
(0.834817 1.12575e-05 0)
(4.46054 4.55458e-05 0)
(13.305 0.00011957 0)
(28.0485 0.000238206 0)
(47.9811 0.000397085 0)
(71.8862 0.000588905 0)
(98.423 0.000806621 0)
(126.1 0.00104249 0)
(152.966 0.0012891 0)
(176.27 0.00153278 0)
(192.912 0.00176887 0)
(200.823 0.0022934 0)
(202.918 0.00224267 0)
(200.283 0.00254663 0)
(196.142 0.00325927 0)
(194.482 0.00327658 0)
(199.588 0.00283593 0)
(197.582 -0.000272013 0)
(194.816 -0.00321609 0)
(198.08 -0.00382531 0)
(199.954 -0.00311579 0)
(203.717 -0.00214853 0)
(199.039 -0.00174111 0)
(190.807 -0.00168035 0)
(174.915 -0.00143159 0)
(133.641 -0.000996082 0)
(60.4605 -0.000449658 0)
(8.75091 -9.36497e-05 0)
(0.245103 -6.63049e-06 0)
(0.000924883 -1.08051e-07 0)
(3.40086e-07 -2.67718e-10 0)
(5.53713e-11 -6.31497e-14 0)
(1.14338e-13 -9.07544e-14 0)
(-3.25856e-14 -1.27766e-13 0)
(-1.01577e-13 -1.34656e-13 0)
(-3.32558e-15 -1.27651e-13 0)
(1.29631e-13 -1.55551e-13 0)
(4.70497e-14 -1.51951e-13 0)
(-7.13149e-14 -1.57779e-13 0)
(-9.65122e-14 -1.61885e-13 0)
(-4.24688e-14 -1.73453e-13 0)
(3.11012e-15 -1.64127e-13 0)
(3.88416e-14 -1.66604e-13 0)
(3.84549e-14 -2.56768e-13 0)
(4.0224e-14 -2.93139e-13 0)
(-2.27244e-14 -2.07316e-13 0)
(-1.367e-13 -1.55253e-13 0)
(-2.23193e-13 -8.83552e-14 0)
(-1.9473e-13 -8.03368e-14 0)
(-5.43412e-15 -4.55894e-14 0)
(9.43855e-14 -7.84328e-14 0)
(-3.8491e-14 -1.32553e-13 0)
(1.38088e-14 -2.01439e-14 0)
(2.53824e-13 -4.83113e-14 0)
(1.82544e-13 -9.38244e-14 0)
(2.40123e-14 -1.55203e-13 0)
(-5.23889e-14 -1.51531e-13 0)
(-1.2955e-13 -1.46697e-13 0)
(-2.69617e-13 -8.73015e-14 0)
(-1.96748e-13 -1.37513e-14 0)
(-2.82466e-15 1.83212e-14 0)
(2.00843e-13 -4.57926e-15 0)
(1.79499e-13 -1.2756e-13 0)
(-4.07322e-14 -1.41924e-13 0)
(-1.20974e-13 -1.17506e-13 0)
(-6.60421e-14 -8.4075e-14 0)
(-1.07079e-13 -1.20151e-13 0)
(-6.25843e-14 -1.87481e-13 0)
(3.25037e-14 -2.57413e-13 0)
(-2.27349e-14 -2.44556e-13 0)
(-1.07195e-13 -2.05487e-13 0)
(-1.04127e-13 -1.43359e-13 0)
(-1.4796e-13 -1.2738e-13 0)
(-1.5404e-14 -1.20247e-13 0)
(8.44092e-14 -1.62744e-13 0)
(1.6086e-15 -2.65926e-13 0)
(6.79258e-14 -2.21e-13 0)
(1.68974e-13 -1.94577e-13 0)
(1.87996e-13 -1.3547e-13 0)
(9.64724e-14 -1.67538e-13 0)
(2.17629e-14 -1.40956e-13 0)
(-1.8265e-14 -1.62377e-13 0)
(4.16299e-14 5.7954e-14 0)
(5.40073e-14 -1.19395e-13 0)
(-1.94019e-14 1.60683e-15 0)
(1.55437e-14 -2.79502e-14 0)
(1.1684e-13 -1.48871e-14 0)
(8.70843e-14 -9.9983e-14 0)
(1.92252e-14 -1.02602e-13 0)
(3.10919e-14 -7.59375e-14 0)
(2.35106e-14 -3.09295e-14 0)
(3.90227e-14 -6.84759e-14 0)
(-5.70416e-14 2.80728e-14 0)
(-4.26857e-14 3.68308e-14 0)
(-2.67541e-15 3.96282e-14 0)
(1.0122e-13 5.85372e-14 0)
(-3.23123e-14 -5.19668e-15 0)
(-1.28608e-14 -4.54492e-14 0)
(2.69653e-14 -6.11833e-14 0)
(-2.39972e-14 4.767e-14 0)
(1.95144e-14 2.80088e-14 0)
(7.03775e-14 1.78744e-14 0)
(-2.09002e-14 1.73636e-14 0)
(6.74637e-14 -6.4315e-14 0)
(6.21841e-14 -5.23569e-14 0)
(3.77239e-15 -1.39465e-14 0)
(3.33214e-14 -1.27734e-14 0)
(-8.27957e-15 -1.31268e-13 0)
(-3.10596e-14 -1.83901e-13 0)
(9.50341e-14 -1.3954e-13 0)
(7.43788e-14 -6.84859e-14 0)
(5.7375e-14 -1.67699e-14 0)
(-1.09737e-14 7.48482e-15 0)
(-5.51949e-14 -6.73948e-14 0)
(-1.09972e-13 -3.46646e-14 0)
(-1.56341e-13 -1.1724e-13 0)
(-4.45837e-14 -7.19122e-14 0)
(-7.04371e-14 -1.02282e-13 0)
(-5.07314e-14 -1.17476e-13 0)
(-3.01469e-14 -4.34455e-14 0)
(1.68453e-14 -6.17054e-14 0)
(1.27946e-13 -4.47985e-14 0)
(1.23351e-13 -1.43955e-13 0)
(1.0212e-13 -4.96977e-14 0)
(2.13747e-14 -5.7847e-14 0)
(1.3063e-15 -6.90979e-14 0)
(-6.51928e-14 -3.58098e-14 0)
(-5.38219e-14 -7.03791e-14 0)
(-3.11343e-14 -8.87583e-14 0)
(6.8661e-15 -1.42843e-13 0)
(-1.32494e-14 -1.36482e-13 0)
(1.19927e-14 -1.14047e-13 0)
(-4.97204e-15 -6.67115e-14 0)
(-4.14093e-14 -2.00876e-14 0)
(4.88621e-14 -7.03289e-15 0)
(-1.9656e-14 8.28526e-14 0)
(-4.21942e-14 5.48505e-14 0)
(5.29303e-14 5.41474e-15 0)
(1.58752e-14 -6.05107e-14 0)
(2.97195e-14 -9.07742e-14 0)
(4.36409e-14 -1.58808e-13 0)
(1.03792e-14 -5.8291e-14 0)
(8.86648e-14 -3.34608e-14 0)
(-4.77749e-14 1.2444e-13 0)
(6.3292e-15 1.22187e-13 0)
(-5.08299e-14 8.81935e-14 0)
(-5.62714e-14 9.5961e-14 0)
(-8.91988e-14 6.76958e-14 0)
(-7.93774e-14 1.19192e-14 0)
(-1.30237e-13 -4.35027e-14 0)
(-6.23121e-14 -1.31012e-14 0)
(2.6226e-14 -6.15672e-14 0)
(9.65605e-14 -9.25527e-14 0)
(7.47317e-14 -4.56557e-14 0)
(-2.20014e-14 3.9873e-14 0)
(-1.04628e-13 2.3394e-14 0)
(-9.35873e-14 1.17804e-14 0)
(1.37201e-16 -3.58852e-14 0)
(-1.27419e-13 1.14833e-15 0)
(-8.73262e-14 2.28484e-14 0)
(-1.2322e-13 1.42528e-13 0)
(5.21317e-13 -6.87284e-14 0)
(1.53184e-09 7.79234e-14 0)
(3.87945e-06 3.31945e-11 0)
(0.00118914 9.83754e-09 0)
(0.0617455 5.25741e-07 0)
(0.834837 7.34802e-06 0)
(4.46064 4.00595e-05 0)
(13.3053 0.000121946 0)
(28.0491 0.000260656 0)
(47.9822 0.00044691 0)
(71.8881 0.000666162 0)
(98.426 0.000907624 0)
(126.104 0.00116955 0)
(152.972 0.00146099 0)
(176.278 0.00183277 0)
(192.923 0.00210437 0)
(200.836 0.00282184 0)
(202.935 0.0022321 0)
(200.302 0.00286843 0)
(196.164 0.00268807 0)
(194.506 0.00118074 0)
(199.613 0.0012158 0)
(197.606 -0.000691212 0)
(194.837 -0.00221145 0)
(198.097 -0.00283565 0)
(199.966 -0.00263159 0)
(203.727 -0.00183473 0)
(199.046 -0.00150215 0)
(190.813 -0.00164805 0)
(174.919 -0.0015677 0)
(133.644 -0.00125651 0)
(60.4618 -0.000561537 0)
(8.75116 -7.62753e-05 0)
(0.245112 -1.97225e-06 0)
(0.000924919 -7.29533e-09 0)
(3.40101e-07 -2.96415e-12 0)
(5.53133e-11 -1.29718e-13 0)
(3.47988e-14 -1.928e-13 0)
(8.44816e-15 -2.43582e-13 0)
(-9.7598e-14 -2.06166e-13 0)
(1.47279e-14 -1.59605e-13 0)
(8.09946e-14 -2.61183e-13 0)
(2.02994e-14 -2.56706e-13 0)
(-1.00233e-13 -2.64724e-13 0)
(-1.10514e-13 -2.58533e-13 0)
(-3.11092e-14 -2.19404e-13 0)
(4.46931e-14 -2.49402e-13 0)
(-4.45547e-14 -2.87524e-13 0)
(-5.94309e-14 -3.51283e-13 0)
(1.03593e-13 -3.38806e-13 0)
(8.34633e-14 -3.27554e-13 0)
(-3.45047e-14 -2.75966e-13 0)
(-1.5522e-13 -2.05782e-13 0)
(-1.74449e-13 -1.21556e-13 0)
(-2.18553e-14 -1.07347e-13 0)
(-3.62829e-14 -1.98741e-13 0)
(-5.7466e-14 -2.01602e-13 0)
(7.29507e-14 -1.18093e-13 0)
(1.78589e-13 -6.51224e-14 0)
(1.85098e-13 -1.74832e-13 0)
(1.60075e-14 -2.15103e-13 0)
(-8.59699e-14 -2.0187e-13 0)
(-9.0366e-14 -1.93188e-13 0)
(-1.88497e-13 -2.09482e-13 0)
(-1.2046e-13 -1.02367e-13 0)
(-8.03713e-15 -3.49919e-15 0)
(9.24775e-14 -5.7541e-14 0)
(1.13215e-13 -1.6112e-13 0)
(-4.21682e-14 -1.75753e-13 0)
(-1.04375e-13 -2.45969e-13 0)
(-3.75781e-14 -1.79884e-13 0)
(-1.11511e-13 -1.48498e-13 0)
(-1.10564e-13 -1.28611e-13 0)
(-2.13292e-14 -1.71858e-13 0)
(-3.98367e-14 -1.41281e-13 0)
(-7.66776e-14 -1.6427e-13 0)
(-1.11366e-13 -1.2015e-13 0)
(-1.12455e-13 -1.90558e-13 0)
(-2.63867e-14 -1.24363e-13 0)
(2.05904e-14 -2.02015e-13 0)
(-2.11879e-14 -2.49747e-13 0)
(9.35088e-14 -2.50775e-13 0)
(1.80178e-13 -3.09167e-13 0)
(2.03286e-13 -2.63694e-13 0)
(1.3321e-13 -3.1216e-13 0)
(2.45423e-15 -3.29703e-13 0)
(-6.61342e-14 -3.99446e-13 0)
(-4.57914e-14 1.00439e-13 0)
(1.46224e-14 6.79813e-14 0)
(-1.1661e-14 -6.12343e-14 0)
(-1.25271e-14 -5.30122e-14 0)
(6.50811e-14 -6.47341e-14 0)
(5.50809e-14 -3.41541e-14 0)
(1.30855e-14 -5.83853e-14 0)
(6.14579e-14 -4.06e-14 0)
(7.95607e-14 -6.12028e-15 0)
(7.33371e-14 -2.22079e-14 0)
(-1.86109e-14 3.3068e-14 0)
(-3.64474e-14 2.87057e-14 0)
(-2.89894e-14 9.71179e-15 0)
(4.7436e-14 -2.00409e-14 0)
(6.79394e-15 -8.28227e-14 0)
(-4.94293e-14 2.08131e-14 0)
(2.23271e-14 2.11032e-14 0)
(2.86941e-14 5.04181e-14 0)
(-4.37254e-15 -2.19433e-15 0)
(8.79279e-14 3.14238e-14 0)
(9.31622e-14 -2.14294e-15 0)
(1.12483e-14 6.11752e-14 0)
(5.62419e-14 -5.95811e-15 0)
(1.58311e-14 8.58258e-14 0)
(-7.07119e-14 1.06311e-15 0)
(-6.28436e-14 -6.07496e-14 0)
(-1.37305e-15 -5.05065e-14 0)
(1.55206e-13 -2.61289e-14 0)
(1.44928e-13 2.37691e-14 0)
(9.3915e-14 2.87071e-14 0)
(-4.32298e-14 3.40909e-14 0)
(-1.37763e-13 3.40526e-14 0)
(-1.31995e-13 -3.64237e-14 0)
(-7.0456e-14 -2.52673e-14 0)
(-1.10093e-13 -1.4202e-14 0)
(-1.48177e-14 -2.38446e-15 0)
(-6.99155e-14 -9.70537e-15 0)
(1.4971e-14 -3.75156e-14 0)
(2.53237e-14 4.76334e-14 0)
(6.71806e-14 -3.1743e-14 0)
(5.68892e-14 -4.16459e-15 0)
(1.9638e-13 -1.362e-14 0)
(7.17857e-14 -3.33228e-15 0)
(-1.35633e-14 3.50058e-14 0)
(-7.05491e-14 -5.75176e-14 0)
(-7.92437e-14 -5.67688e-14 0)
(-6.90331e-14 -6.41686e-14 0)
(-5.24578e-14 -1.10081e-13 0)
(-1.12171e-14 -9.79877e-14 0)
(1.07258e-13 -1.03569e-13 0)
(8.88025e-14 -3.53672e-14 0)
(2.67518e-14 1.89575e-14 0)
(8.88768e-14 6.12053e-14 0)
(3.10059e-15 7.22587e-14 0)
(-7.11054e-14 -4.68897e-16 0)
(6.70157e-14 -5.99101e-15 0)
(5.53175e-14 -1.14283e-13 0)
(-2.03652e-14 -1.98672e-14 0)
(4.9002e-14 2.80923e-16 0)
(1.79157e-14 -5.97536e-15 0)
(6.59057e-14 5.48577e-14 0)
(7.98961e-14 9.60559e-15 0)
(-1.94462e-14 1.45061e-13 0)
(-7.32922e-14 1.58481e-13 0)
(-6.24649e-14 1.40836e-13 0)
(-1.14524e-13 1.29861e-13 0)
(-8.70066e-14 4.87829e-14 0)
(-2.25862e-13 -3.92533e-15 0)
(-7.06203e-14 8.712e-14 0)
(9.11929e-14 6.74689e-14 0)
(1.21227e-13 -1.748e-15 0)
(8.95028e-14 5.69718e-14 0)
(-4.55838e-14 4.66655e-14 0)
(-3.85391e-14 -1.32242e-14 0)
(-1.45102e-13 8.33365e-14 0)
(-7.5924e-14 6.37865e-14 0)
(-9.10953e-14 6.19086e-14 0)
(-5.34707e-14 -2.24184e-15 0)
(-9.74705e-14 4.46048e-14 0)
(3.27221e-13 -8.35004e-14 0)
(1.53216e-09 -2.67311e-14 0)
(3.87958e-06 2.3255e-11 0)
(0.00118917 6.86352e-09 0)
(0.0617465 3.37567e-07 0)
(0.834846 4.35262e-06 0)
(4.46067 2.30605e-05 0)
(13.3053 7.11802e-05 0)
(28.0492 0.000158798 0)
(47.9823 0.000287981 0)
(71.8882 0.000454214 0)
(98.4261 0.0006511 0)
(126.104 0.000875482 0)
(152.972 0.00112565 0)
(176.278 0.0014188 0)
(192.923 0.00167163 0)
(200.836 0.00211929 0)
(202.935 0.00194903 0)
(200.302 0.00202556 0)
(196.164 0.00184831 0)
(194.506 0.00113226 0)
(199.613 0.0011626 0)
(197.606 -0.000370636 0)
(194.837 -0.00161509 0)
(198.097 -0.00215802 0)
(199.967 -0.00206366 0)
(203.727 -0.00160631 0)
(199.046 -0.00138586 0)
(190.813 -0.00132455 0)
(174.919 -0.00108839 0)
(133.644 -0.000679995 0)
(60.4621 -0.000270531 0)
(8.75127 -4.10041e-05 0)
(0.245117 -1.2519e-06 0)
(0.000924953 -5.07675e-09 0)
(3.40118e-07 -2.06482e-12 0)
(5.52728e-11 -3.20707e-13 0)
(2.32055e-14 -2.99917e-13 0)
(5.01664e-14 -2.97821e-13 0)
(-2.78853e-15 -2.52684e-13 0)
(-1.7928e-14 -1.55146e-13 0)
(2.97282e-14 -2.51782e-13 0)
(1.53374e-14 -2.13079e-13 0)
(-3.93531e-14 -2.4964e-13 0)
(-6.90646e-14 -2.02452e-13 0)
(-1.30362e-14 -1.36684e-13 0)
(-5.38124e-14 -1.77577e-13 0)
(-7.97711e-14 -2.58981e-13 0)
(1.28759e-14 -2.32666e-13 0)
(6.64283e-14 -2.0568e-13 0)
(1.61017e-14 -2.5166e-13 0)
(-4.22635e-14 -3.26781e-13 0)
(-2.69561e-14 -2.77825e-13 0)
(-1.01804e-13 -1.18997e-13 0)
(-4.73058e-14 -6.59939e-14 0)
(1.76916e-15 -1.12715e-13 0)
(-2.60434e-14 -2.51077e-14 0)
(8.66438e-14 -7.59063e-14 0)
(1.44927e-13 -1.28318e-13 0)
(8.22334e-14 -2.09162e-13 0)
(8.69469e-15 -2.92586e-13 0)
(-3.0411e-14 -2.25106e-13 0)
(-1.50838e-13 -2.07959e-13 0)
(-1.48784e-13 -1.75095e-13 0)
(1.61667e-14 -1.16293e-13 0)
(1.15269e-14 -9.74163e-14 0)
(-1.80351e-14 -1.2097e-13 0)
(4.48759e-14 -1.7511e-13 0)
(-9.70146e-14 -2.2208e-13 0)
(-9.99162e-14 -1.68515e-13 0)
(1.84731e-14 -1.68086e-13 0)
(-3.9765e-14 -1.33688e-13 0)
(-5.80539e-14 -8.28097e-14 0)
(6.79216e-15 -5.67156e-14 0)
(-8.6545e-14 -3.81255e-14 0)
(-7.79643e-14 -6.43697e-14 0)
(-1.22811e-13 -5.47578e-14 0)
(-1.24993e-13 -3.6243e-14 0)
(-5.3795e-14 -5.0558e-14 0)
(-4.48739e-15 -6.54844e-14 0)
(-3.03819e-14 -4.45476e-14 0)
(1.14387e-14 -1.03216e-13 0)
(1.03259e-13 -1.5284e-13 0)
(1.68386e-13 -2.41187e-13 0)
(8.16901e-14 -3.24555e-13 0)
(-3.25463e-14 -3.41437e-13 0)
(-5.61148e-14 -3.98899e-13 0)
(-1.36435e-13 1.35969e-13 0)
(-3.9639e-14 9.7402e-14 0)
(-8.96637e-14 7.7622e-14 0)
(1.87648e-14 3.30106e-14 0)
(7.5152e-14 -6.74358e-15 0)
(8.047e-14 -1.15309e-13 0)
(4.82574e-14 -1.2831e-14 0)
(1.34507e-13 4.83211e-14 0)
(1.15634e-14 7.09363e-14 0)
(2.91708e-14 1.52375e-14 0)
(3.53506e-14 -3.05756e-14 0)
(-1.03793e-13 -9.43817e-15 0)
(1.9862e-14 2.37014e-14 0)
(4.92885e-14 4.47072e-14 0)
(1.58034e-14 3.01961e-14 0)
(-5.46192e-15 7.25346e-14 0)
(-1.17007e-14 5.59044e-14 0)
(-4.17788e-14 -2.72846e-14 0)
(-2.15893e-14 9.75449e-15 0)
(5.43519e-14 -5.18592e-14 0)
(5.87546e-14 -4.19546e-14 0)
(6.24815e-14 -3.33731e-14 0)
(8.20457e-15 -1.12083e-15 0)
(3.46987e-14 -1.22743e-13 0)
(-1.14387e-14 1.6903e-14 0)
(-7.26666e-14 5.49651e-14 0)
(3.23634e-14 8.54444e-14 0)
(1.80889e-13 1.21699e-13 0)
(1.25611e-13 9.52758e-14 0)
(7.25065e-14 8.00297e-14 0)
(-4.73919e-14 6.33307e-14 0)
(-1.02688e-13 1.17312e-13 0)
(-1.49067e-13 9.61095e-14 0)
(-6.59652e-14 1.47244e-13 0)
(-8.24571e-14 5.75161e-14 0)
(-9.70141e-14 4.63037e-15 0)
(-8.99303e-14 1.00436e-13 0)
(5.88014e-15 2.91101e-14 0)
(6.04765e-14 -2.91804e-14 0)
(-9.17241e-15 -7.46875e-14 0)
(1.01128e-13 -5.66247e-14 0)
(1.89362e-13 -9.4703e-14 0)
(7.71789e-14 -3.70059e-14 0)
(-1.74648e-14 -2.62479e-14 0)
(-8.95402e-14 -7.79947e-14 0)
(-1.08302e-13 2.09749e-14 0)
(1.46759e-14 -3.84603e-14 0)
(-3.00973e-14 3.85489e-14 0)
(-3.59799e-14 -6.9222e-15 0)
(6.381e-14 9.0808e-15 0)
(1.72538e-13 1.97262e-14 0)
(8.30599e-14 1.39534e-13 0)
(5.53813e-14 7.55564e-14 0)
(3.22315e-14 6.23491e-14 0)
(-9.44829e-15 7.12051e-14 0)
(8.54899e-15 6.30725e-14 0)
(2.52281e-14 -1.13588e-14 0)
(5.59226e-14 7.29464e-14 0)
(3.94664e-14 4.1482e-14 0)
(4.38077e-14 -1.24094e-14 0)
(6.91667e-14 2.38153e-14 0)
(3.26737e-15 6.26709e-15 0)
(1.43416e-14 5.3763e-15 0)
(-6.08963e-14 3.26422e-14 0)
(-5.00983e-14 4.3987e-14 0)
(-5.5299e-14 4.04045e-14 0)
(-9.04119e-14 5.82112e-14 0)
(-2.02619e-13 1.10776e-13 0)
(-5.84225e-14 5.2201e-14 0)
(5.33211e-14 1.46317e-13 0)
(7.34764e-14 7.96998e-14 0)
(7.83487e-14 4.63414e-15 0)
(-5.01138e-14 7.30254e-15 0)
(-2.7211e-14 3.39093e-14 0)
(-3.28805e-14 5.40429e-14 0)
(-5.27408e-14 1.77659e-13 0)
(-1.76276e-13 1.20181e-13 0)
(-1.18898e-13 5.47619e-14 0)
(-1.48458e-13 5.33546e-15 0)
(3.52925e-13 1.05315e-15 0)
(1.53199e-09 -1.37256e-13 0)
(3.87965e-06 1.04404e-11 0)
(0.00118918 3.28593e-09 0)
(0.0617471 1.74196e-07 0)
(0.834852 2.4351e-06 0)
(4.46069 1.39398e-05 0)
(13.3054 4.61376e-05 0)
(28.0493 0.000109133 0)
(47.9825 0.00020756 0)
(71.8884 0.00034059 0)
(98.4263 0.000505049 0)
(126.104 0.000698812 0)
(152.973 0.000919259 0)
(176.279 0.00117679 0)
(192.923 0.00138238 0)
(200.836 0.00169413 0)
(202.935 0.00164978 0)
(200.302 0.00160317 0)
(196.163 0.00133383 0)
(194.505 0.00102295 0)
(199.612 0.000979056 0)
(197.605 -0.000331406 0)
(194.837 -0.000914297 0)
(198.097 -0.00116537 0)
(199.967 -0.00116667 0)
(203.727 -0.00112292 0)
(199.046 -0.00106426 0)
(190.813 -0.000969936 0)
(174.919 -0.000795616 0)
(133.644 -0.000531533 0)
(60.4625 -0.00021069 0)
(8.75136 -2.74324e-05 0)
(0.245121 -7.15652e-07 0)
(0.000924972 -2.5422e-09 0)
(3.40127e-07 -9.30483e-13 0)
(5.53365e-11 -3.26703e-13 0)
(3.55695e-14 -2.54462e-13 0)
(2.35156e-14 -2.81305e-13 0)
(6.89649e-14 -2.50185e-13 0)
(3.30267e-14 -1.79036e-13 0)
(7.35253e-14 -1.26484e-13 0)
(1.38244e-15 -1.45523e-13 0)
(-1.01937e-13 -1.43605e-13 0)
(-8.49031e-15 -1.01295e-13 0)
(7.02007e-14 -7.3815e-14 0)
(-6.85714e-14 -9.07778e-14 0)
(-1.10122e-13 -1.04447e-13 0)
(-2.44016e-14 -7.03304e-14 0)
(4.94021e-14 -1.38005e-13 0)
(-6.81194e-15 -1.58673e-13 0)
(-6.92774e-14 -1.64339e-13 0)
(4.10035e-15 -1.01034e-13 0)
(4.40045e-14 -2.06427e-14 0)
(-2.76131e-14 4.45597e-14 0)
(-3.30184e-15 3.83463e-15 0)
(-1.63481e-14 -6.62296e-15 0)
(-9.11e-15 -7.44142e-14 0)
(6.80564e-14 -1.71843e-13 0)
(-3.99937e-15 -2.56356e-13 0)
(1.39328e-15 -2.87209e-13 0)
(1.0229e-14 -2.42015e-13 0)
(-1.5317e-14 -1.45956e-13 0)
(-8.43404e-14 -5.45933e-14 0)
(-5.03639e-14 -6.25223e-14 0)
(-2.39922e-14 -1.70847e-13 0)
(-1.62406e-14 -1.76587e-13 0)
(-5.64791e-15 -1.70385e-13 0)
(-5.31256e-14 -1.21037e-13 0)
(-4.00646e-14 -1.91435e-14 0)
(4.78133e-15 -2.63219e-14 0)
(-4.49073e-14 -5.9482e-14 0)
(-3.55821e-14 -5.40527e-14 0)
(3.35885e-14 -3.86414e-14 0)
(-3.45712e-14 -3.39222e-14 0)
(-7.75537e-14 8.17678e-15 0)
(-7.86467e-14 -2.39673e-14 0)
(-1.11866e-13 3.92473e-14 0)
(-5.60015e-14 5.40489e-14 0)
(8.96965e-15 6.55657e-14 0)
(-1.45755e-14 4.08327e-14 0)
(-8.92348e-15 6.82614e-14 0)
(6.63052e-15 -1.15426e-14 0)
(8.26174e-14 -8.93637e-14 0)
(5.95442e-14 -1.59562e-13 0)
(5.43419e-15 -1.44209e-13 0)
(-4.55621e-14 -1.60635e-13 0)
(-1.22745e-13 7.26451e-14 0)
(-5.20488e-14 1.27133e-13 0)
(-1.66565e-14 1.77944e-13 0)
(-5.74984e-14 1.09435e-13 0)
(-4.14412e-14 3.26038e-14 0)
(1.12102e-13 -4.02524e-14 0)
(1.28625e-13 -1.60945e-14 0)
(5.93826e-14 -5.82744e-14 0)
(-3.47297e-14 -1.33942e-14 0)
(2.06855e-14 2.45688e-14 0)
(4.47493e-14 -1.25093e-14 0)
(-4.06396e-14 -1.53456e-14 0)
(-6.6749e-15 -4.60929e-14 0)
(-1.22824e-14 -4.35914e-14 0)
(3.89846e-17 -1.49874e-13 0)
(7.04261e-15 -1.02529e-14 0)
(-5.21633e-14 -7.53081e-14 0)
(-7.0604e-14 -1.49615e-13 0)
(-3.1706e-14 -7.28921e-14 0)
(1.49971e-13 -1.36792e-13 0)
(7.89041e-14 -5.66432e-14 0)
(3.00762e-14 -1.84877e-13 0)
(-1.73644e-14 -1.56265e-13 0)
(-2.47071e-14 -1.80969e-13 0)
(2.48102e-14 -1.28815e-13 0)
(3.78709e-14 -8.90339e-14 0)
(7.44336e-14 -7.30123e-14 0)
(1.53683e-13 -3.25405e-14 0)
(4.54284e-14 4.95576e-14 0)
(2.14918e-14 -3.75987e-14 0)
(-3.05484e-14 -2.43558e-14 0)
(-5.58958e-14 -1.18343e-14 0)
(-9.4278e-14 -3.71113e-14 0)
(-9.12899e-14 6.79936e-14 0)
(-9.78571e-14 6.77067e-14 0)
(-1.17127e-13 1.12723e-13 0)
(-1.44494e-13 -2.38932e-14 0)
(-5.29921e-15 3.83877e-14 0)
(1.22838e-14 -7.70101e-14 0)
(4.5647e-14 -4.34065e-14 0)
(6.40486e-14 -4.97115e-14 0)
(1.25447e-13 -1.27964e-13 0)
(7.2195e-14 -1.41e-13 0)
(-4.11422e-14 -1.69848e-13 0)
(-3.05635e-15 -1.54487e-13 0)
(-7.91242e-14 -8.47016e-14 0)
(-3.31216e-14 -1.56892e-13 0)
(-2.84863e-14 -1.17619e-13 0)
(-1.33803e-14 -1.36779e-13 0)
(9.66901e-14 -7.06296e-14 0)
(1.56548e-13 1.42375e-14 0)
(1.45231e-13 2.8335e-14 0)
(3.69902e-14 2.49247e-14 0)
(-9.91907e-15 1.31477e-14 0)
(4.09783e-16 1.56201e-14 0)
(-4.67861e-15 7.70836e-14 0)
(7.47734e-14 9.12163e-14 0)
(7.20789e-14 -1.32861e-15 0)
(-3.99631e-15 -7.05412e-15 0)
(-1.7527e-14 -6.41088e-14 0)
(-9.01694e-15 -1.4011e-13 0)
(4.02005e-14 -9.76518e-14 0)
(-2.78022e-14 -1.09361e-13 0)
(-2.31452e-14 -1.0449e-13 0)
(-3.89284e-14 -5.29538e-14 0)
(-5.32838e-14 -7.6189e-14 0)
(-3.927e-14 -9.34996e-15 0)
(-1.52918e-13 3.03213e-14 0)
(-4.68353e-14 4.1562e-14 0)
(4.02512e-14 6.58237e-14 0)
(7.64121e-14 2.92409e-14 0)
(-7.22456e-14 9.70692e-15 0)
(4.75444e-14 -3.12705e-14 0)
(-2.51992e-14 5.43554e-14 0)
(-1.08981e-14 2.5794e-14 0)
(-3.94137e-14 3.58923e-14 0)
(-1.9728e-13 -2.23321e-15 0)
(-1.42203e-13 6.47493e-14 0)
(-2.06305e-13 6.79093e-15 0)
(4.09817e-13 -3.43652e-15 0)
(1.53185e-09 -4.45916e-14 0)
(3.87968e-06 3.64991e-12 0)
(0.00118919 1.36808e-09 0)
(0.0617474 8.00295e-08 0)
(0.834855 1.2232e-06 0)
(4.46071 7.56518e-06 0)
(13.3054 2.66961e-05 0)
(28.0493 6.66848e-05 0)
(47.9825 0.000133284 0)
(71.8885 0.000229192 0)
(98.4265 0.000354997 0)
(126.104 0.000510457 0)
(152.973 0.000692753 0)
(176.279 0.000905096 0)
(192.923 0.00108172 0)
(200.836 0.00132149 0)
(202.935 0.00137907 0)
(200.302 0.0013027 0)
(196.163 0.00106788 0)
(194.505 0.000881027 0)
(199.612 0.000706065 0)
(197.605 -0.000118883 0)
(194.836 -0.00065258 0)
(198.097 -0.000790449 0)
(199.967 -0.000798666 0)
(203.727 -0.000799135 0)
(199.046 -0.000733903 0)
(190.813 -0.000652672 0)
(174.919 -0.000517715 0)
(133.644 -0.000332442 0)
(60.4627 -0.000122794 0)
(8.75142 -1.43989e-05 0)
(0.245123 -3.27692e-07 0)
(0.000924982 -9.79481e-10 0)
(3.40131e-07 -2.74767e-13 0)
(5.53538e-11 -1.06572e-13 0)
(5.43391e-14 -8.97012e-14 0)
(5.52088e-14 -9.14332e-14 0)
(9.4615e-14 -3.36574e-14 0)
(8.84603e-14 1.05491e-14 0)
(4.87131e-14 7.32607e-14 0)
(-3.26302e-16 2.05833e-14 0)
(-1.65311e-14 6.03941e-14 0)
(1.25944e-15 7.86682e-14 0)
(-1.57867e-14 7.1009e-15 0)
(-9.50424e-14 -6.20177e-14 0)
(-4.74594e-14 -1.89427e-14 0)
(-5.27273e-15 4.34002e-14 0)
(-3.31075e-14 -1.56219e-14 0)
(-4.42195e-14 -8.90982e-14 0)
(-6.7047e-15 -4.75266e-14 0)
(8.55413e-14 -1.05613e-14 0)
(8.03124e-14 6.56926e-14 0)
(-1.92447e-14 7.73464e-14 0)
(-8.38737e-14 3.63641e-14 0)
(-6.66893e-14 -5.9777e-14 0)
(-2.54092e-14 -7.5103e-14 0)
(1.10187e-14 -8.20103e-14 0)
(-8.75608e-15 -1.16081e-13 0)
(4.83431e-14 -1.0233e-13 0)
(6.61675e-14 -3.16926e-14 0)
(1.16908e-14 2.59123e-14 0)
(-7.29534e-14 -2.91886e-14 0)
(-1.08989e-13 -3.15702e-14 0)
(-6.49771e-14 -6.81396e-14 0)
(5.60546e-15 -6.85768e-14 0)
(6.22529e-14 -7.26548e-14 0)
(3.78241e-14 1.99058e-14 0)
(-2.66503e-14 1.24358e-13 0)
(-6.29335e-14 7.50663e-14 0)
(-8.04484e-14 -4.7142e-15 0)
(1.80754e-15 1.23589e-14 0)
(4.6084e-14 3.92819e-14 0)
(-3.02386e-14 -5.38378e-15 0)
(-5.59153e-14 1.0344e-14 0)
(-7.82749e-14 6.21036e-14 0)
(-7.69559e-14 1.70093e-14 0)
(-2.21075e-14 9.21517e-14 0)
(-3.50602e-14 8.26967e-14 0)
(-7.12584e-15 4.63847e-14 0)
(-7.34297e-15 8.67486e-14 0)
(-2.09474e-14 4.71769e-14 0)
(3.91898e-14 7.41639e-14 0)
(2.54743e-14 3.36075e-14 0)
(-1.58332e-14 5.61693e-14 0)
(-2.52572e-14 3.40463e-14 0)
(-8.10135e-15 1.73337e-13 0)
(9.77243e-15 1.0589e-13 0)
(-7.32768e-14 2.7999e-14 0)
(-4.00902e-14 3.6109e-14 0)
(-5.34287e-14 8.57021e-14 0)
(-4.74718e-15 -1.78044e-15 0)
(4.36266e-14 -1.99969e-14 0)
(9.39423e-14 -2.95185e-14 0)
(1.72567e-14 -1.42335e-13 0)
(3.819e-14 -5.15711e-14 0)
(-4.82234e-14 2.53598e-14 0)
(-9.65831e-14 1.52186e-14 0)
(-7.42391e-14 -4.72035e-14 0)
(-3.94793e-14 -8.42082e-14 0)
(5.04542e-14 4.25326e-14 0)
(3.77721e-14 -8.36624e-14 0)
(-1.12011e-14 -1.94889e-14 0)
(-1.6793e-14 -9.5759e-15 0)
(3.09529e-14 8.71192e-15 0)
(6.61037e-14 1.6326e-14 0)
(2.15475e-14 -1.07274e-13 0)
(6.67338e-14 -1.41553e-13 0)
(-7.34967e-14 -1.18032e-13 0)
(-4.54479e-14 -9.29554e-14 0)
(-7.57784e-14 -1.8759e-13 0)
(4.17342e-14 -1.13251e-13 0)
(1.43795e-13 -8.24503e-14 0)
(1.8885e-13 -5.44889e-14 0)
(9.18189e-14 -1.35255e-13 0)
(1.47723e-14 -1.46502e-13 0)
(6.39952e-14 -5.22223e-14 0)
(-7.38786e-14 -2.6111e-14 0)
(-9.84686e-14 -5.10341e-14 0)
(-2.06898e-14 -1.47513e-14 0)
(-6.22233e-14 6.08384e-14 0)
(-1.2557e-13 6.7189e-14 0)
(-1.65409e-13 -7.77006e-14 0)
(-6.51996e-14 2.71502e-14 0)
(8.49009e-15 -7.9345e-14 0)
(1.36538e-14 -4.19927e-14 0)
(4.17539e-14 -5.25274e-14 0)
(7.75741e-14 -5.87319e-14 0)
(8.67167e-14 -3.49813e-14 0)
(1.08326e-14 -7.35697e-14 0)
(-7.52254e-14 -4.53075e-14 0)
(-5.33787e-14 -1.14504e-14 0)
(-1.59422e-13 -7.69167e-14 0)
(-2.60794e-15 -1.68962e-13 0)
(9.38387e-15 -4.7856e-14 0)
(1.62932e-13 -5.52763e-14 0)
(1.82854e-13 4.49745e-14 0)
(1.21386e-13 1.99522e-14 0)
(8.67602e-15 6.4514e-14 0)
(-2.8555e-14 -1.315e-14 0)
(7.07264e-14 -1.52723e-14 0)
(7.78639e-14 4.04772e-14 0)
(4.46537e-14 3.87852e-14 0)
(3.97772e-15 4.67832e-15 0)
(-2.11924e-14 -5.73851e-14 0)
(-7.43158e-14 -4.98828e-14 0)
(-5.73771e-15 -8.7545e-14 0)
(3.5115e-14 -1.52397e-13 0)
(4.74047e-14 -1.28664e-13 0)
(-4.95747e-14 -2.57612e-14 0)
(-1.31856e-14 -7.21083e-14 0)
(-5.34316e-14 4.11006e-14 0)
(5.70419e-15 -5.41692e-14 0)
(-1.35595e-13 -3.03799e-14 0)
(-2.30602e-14 5.41822e-14 0)
(-2.05408e-14 9.04968e-14 0)
(-9.8001e-15 3.75307e-14 0)
(1.40104e-14 4.06976e-14 0)
(1.84192e-15 8.1816e-14 0)
(6.82625e-15 6.29835e-14 0)
(3.44151e-14 -8.17952e-15 0)
(-1.16986e-13 2.58823e-14 0)
(-1.62793e-13 1.11548e-14 0)
(-6.13663e-14 5.24722e-14 0)
(-1.3928e-13 4.97766e-14 0)
(2.66905e-13 -4.20895e-15 0)
(1.53188e-09 7.90217e-14 0)
(3.87969e-06 5.51511e-13 0)
(0.00118919 3.69259e-10 0)
(0.0617475 2.73199e-08 0)
(0.834857 4.94538e-07 0)
(4.46072 3.49327e-06 0)
(13.3055 1.36768e-05 0)
(28.0494 3.7082e-05 0)
(47.9826 7.92237e-05 0)
(71.8886 0.00014409 0)
(98.4266 0.000234298 0)
(126.105 0.000351552 0)
(152.973 0.000495626 0)
(176.279 0.000664034 0)
(192.924 0.00082051 0)
(200.836 0.000997879 0)
(202.935 0.00111078 0)
(200.302 0.0010808 0)
(196.163 0.000926395 0)
(194.505 0.000758094 0)
(199.612 0.000502776 0)
(197.604 6.14753e-05 0)
(194.836 -0.000337655 0)
(198.096 -0.000438612 0)
(199.966 -0.000478157 0)
(203.727 -0.000493545 0)
(199.046 -0.000446116 0)
(190.813 -0.000387228 0)
(174.919 -0.000288972 0)
(133.645 -0.000168734 0)
(60.4629 -5.37394e-05 0)
(8.75145 -5.05751e-06 0)
(0.245124 -8.03378e-08 0)
(0.000924985 -1.25532e-10 0)
(3.40131e-07 -8.43362e-15 0)
(5.54016e-11 1.46829e-13 0)
(1.02369e-13 1.97124e-13 0)
(1.08822e-13 2.03766e-13 0)
(1.38024e-13 1.84522e-13 0)
(1.51158e-13 2.34029e-13 0)
(9.88114e-14 1.79128e-13 0)
(4.1208e-16 1.8998e-13 0)
(-6.59894e-14 1.33437e-13 0)
(-7.07889e-14 1.46674e-13 0)
(-7.05004e-14 1.0401e-13 0)
(-9.82251e-14 1.18081e-13 0)
(-5.75945e-14 6.16246e-14 0)
(1.36465e-14 7.18612e-14 0)
(-7.57774e-14 8.69804e-14 0)
(-8.80973e-14 1.52774e-14 0)
(6.64861e-15 1.92351e-14 0)
(1.35402e-13 3.86572e-15 0)
(6.92468e-14 2.2894e-14 0)
(-4.54545e-14 -5.88678e-14 0)
(-1.40182e-13 -4.8009e-14 0)
(-1.11713e-13 -9.50482e-14 0)
(-1.6962e-14 -1.28971e-14 0)
(3.89785e-14 -5.41969e-14 0)
(2.95901e-14 5.39779e-14 0)
(9.32761e-14 5.06674e-14 0)
(1.44252e-13 1.38016e-13 0)
(-1.56816e-14 1.56896e-13 0)
(-1.26781e-13 8.56383e-14 0)
(-5.39077e-14 5.39177e-14 0)
(-2.79399e-14 1.01013e-13 0)
(-4.62744e-14 1.0283e-13 0)
(5.03014e-14 5.12641e-14 0)
(1.18025e-13 2.72902e-14 0)
(2.12091e-14 7.23072e-14 0)
(-1.13741e-13 6.74788e-14 0)
(-1.40264e-13 1.95306e-14 0)
(2.76146e-15 3.35062e-14 0)
(3.17145e-14 -3.29528e-14 0)
(-5.0021e-14 -2.14482e-14 0)
(2.33573e-15 3.57381e-14 0)
(-9.07066e-14 8.51307e-14 0)
(-9.15616e-14 4.83795e-14 0)
(-1.65472e-14 4.04333e-14 0)
(-2.28102e-15 5.41468e-14 0)
(2.49047e-14 4.97658e-14 0)
(2.62125e-14 1.81693e-14 0)
(1.59459e-14 5.63027e-14 0)
(3.90867e-14 6.33979e-14 0)
(4.42387e-15 1.22029e-13 0)
(-4.96838e-14 1.89047e-13 0)
(-6.69494e-14 2.57773e-13 0)
(3.90386e-14 1.3052e-13 0)
(-4.14883e-14 8.42606e-14 0)
(-8.02722e-14 -2.66692e-14 0)
(-6.08728e-14 5.39737e-14 0)
(-6.70186e-14 5.9304e-14 0)
(-2.79996e-14 1.11043e-13 0)
(6.25766e-14 1.32411e-13 0)
(6.056e-15 7.56038e-14 0)
(1.06686e-14 2.0251e-14 0)
(-2.91119e-14 -4.56826e-14 0)
(2.53554e-14 1.61091e-15 0)
(1.99983e-14 3.09078e-14 0)
(-1.09741e-13 2.76388e-14 0)
(4.02283e-14 6.73597e-14 0)
(-2.96945e-14 1.0646e-13 0)
(-4.54416e-14 4.31065e-14 0)
(5.50906e-14 3.55044e-14 0)
(1.64143e-14 6.96808e-14 0)
(-3.76712e-14 5.15216e-14 0)
(7.69797e-14 8.03079e-14 0)
(1.36156e-15 4.76638e-14 0)
(-4.48909e-15 -6.67022e-14 0)
(7.12062e-14 -9.12477e-14 0)
(-1.75894e-14 -1.71744e-15 0)
(-5.53105e-14 1.87601e-14 0)
(6.03196e-14 6.04994e-14 0)
(1.62083e-13 1.14088e-13 0)
(1.11668e-13 5.58545e-14 0)
(8.53335e-16 8.45062e-15 0)
(7.25967e-14 -4.17032e-14 0)
(1.35101e-13 -9.15961e-15 0)
(-5.78816e-14 6.98776e-14 0)
(-5.39288e-14 4.04411e-14 0)
(-4.31403e-14 -3.95683e-14 0)
(-8.90761e-14 1.99059e-14 0)
(-1.37299e-13 -1.51066e-14 0)
(-1.76069e-13 7.76977e-14 0)
(-7.63101e-14 -8.87147e-15 0)
(-6.16902e-14 5.58478e-14 0)
(1.20291e-14 -5.10694e-15 0)
(1.41611e-13 2.81903e-15 0)
(2.58084e-14 6.01383e-14 0)
(1.05382e-13 -2.62705e-14 0)
(3.60927e-14 1.23852e-13 0)
(-2.62351e-14 5.92335e-14 0)
(-7.59029e-14 6.22177e-14 0)
(-1.46037e-13 4.34915e-14 0)
(-6.96438e-14 1.07882e-13 0)
(5.52703e-14 1.49709e-14 0)
(1.47281e-13 4.81964e-14 0)