/*--------------------------------*- C++ -*----------------------------------*\
  =========                 |
  \\      /  F ield         | OpenFOAM: The Open Source CFD Toolbox
   \\    /   O peration     | Website:  https://openfoam.org
    \\  /    A nd           | Version:  13
     \\/     M anipulation  |
\*---------------------------------------------------------------------------*/
FoamFile
{
    format      ascii;
    class       volVectorField;
    location    "0.0015";
    object      U;
}
// * * * * * * * * * * * * * * * * * * * * * * * * * * * * * * * * * * * * * //

dimensions      [0 1 -1 0 0 0 0];

internalField   nonuniform List<vector> 
33333
(
(-2.45086e-13 7.6286e-13 0)
(-1.95787e-13 7.47821e-13 0)
(-5.42566e-14 6.46109e-13 0)
(1.06568e-13 6.84479e-13 0)
(1.05464e-13 6.33474e-13 0)
(2.08222e-13 5.0461e-13 0)
(2.19019e-13 4.46313e-13 0)
(2.58893e-13 5.65896e-13 0)
(2.97726e-13 5.50335e-13 0)
(1.0607e-13 6.40713e-13 0)
(-9.84439e-14 6.04804e-13 0)
(2.45681e-14 4.59167e-13 0)
(1.86048e-13 5.21219e-13 0)
(1.64817e-13 6.15645e-13 0)
(2.72568e-13 5.94603e-13 0)
(2.9536e-14 7.01132e-13 0)
(-1.84361e-13 8.22782e-13 0)
(-1.58185e-13 7.88662e-13 0)
(-1.35056e-13 7.66212e-13 0)
(-1.58054e-13 8.54429e-13 0)
(-1.87919e-13 7.97137e-13 0)
(-2.10147e-13 7.51702e-13 0)
(-6.54855e-14 7.19969e-13 0)
(1.82448e-14 8.35562e-13 0)
(-9.6242e-14 8.64598e-13 0)
(-1.95853e-13 8.41318e-13 0)
(-1.56725e-13 8.05551e-13 0)
(-3.12939e-14 7.42473e-13 0)
(-9.41328e-14 7.69396e-13 0)
(-7.25648e-14 7.1476e-13 0)
(-3.03937e-14 6.85567e-13 0)
(1.29042e-13 5.80869e-13 0)
(3.3635e-13 4.99714e-13 0)
(8.12983e-14 4.54374e-13 0)
(-1.55121e-13 6.3476e-13 0)
(-4.98091e-14 6.88412e-13 0)
(6.86459e-15 6.17069e-13 0)
(1.05802e-13 7.23807e-13 0)
(1.77533e-13 6.58281e-13 0)
(1.32225e-13 6.43544e-13 0)
(4.34124e-14 6.87968e-13 0)
(1.49827e-13 6.23223e-13 0)
(3.39603e-13 6.25814e-13 0)
(1.04238e-13 5.68094e-13 0)
(-4.1539e-14 5.4376e-13 0)
(6.94882e-14 7.14283e-13 0)
(1.17561e-13 6.50195e-13 0)
(1.66319e-13 7.14839e-13 0)
(-5.36739e-14 7.46501e-13 0)
(-8.95119e-14 6.69736e-13 0)
(6.05855e-14 5.74263e-13 0)
(-1.93731e-13 5.06292e-13 0)
(-2.56788e-13 5.17639e-13 0)
(2.80337e-14 5.81857e-13 0)
(2.11172e-13 6.89908e-13 0)
(1.59791e-13 7.52066e-13 0)
(8.98672e-14 8.0884e-13 0)
(1.06931e-13 7.39956e-13 0)
(-3.59745e-14 6.29348e-13 0)
(-1.70543e-13 7.33918e-13 0)
(-2.40548e-13 7.07672e-13 0)
(-1.18226e-13 6.26116e-13 0)
(5.90003e-14 7.03152e-13 0)
(-4.56456e-14 6.43065e-13 0)
(-5.91751e-14 5.26781e-13 0)
(7.13314e-14 4.50838e-13 0)
(1.03198e-14 5.35697e-13 0)
(-1.4622e-13 5.40102e-13 0)
(-1.64672e-13 6.34237e-13 0)
(6.46336e-15 5.95781e-13 0)
(9.62163e-14 7.23129e-13 0)
(-8.38498e-15 7.19617e-13 0)
(-9.05824e-14 7.31509e-13 0)
(-1.9821e-13 6.50356e-13 0)
(-1.33291e-13 6.304e-13 0)
(-8.09262e-14 6.68565e-13 0)
(-2.74402e-13 6.40398e-13 0)
(-2.30053e-13 4.57102e-13 0)
(2.11159e-14 4.79347e-13 0)
(1.07014e-13 6.29771e-13 0)
(1.14975e-13 5.90647e-13 0)
(-1.29973e-13 5.01277e-13 0)
(-2.41916e-13 5.94641e-13 0)
(-2.27472e-13 4.54527e-13 0)
(-1.62628e-13 4.57495e-13 0)
(1.06111e-14 4.92798e-13 0)
(2.32047e-13 4.65615e-13 0)
(3.693e-13 6.2288e-13 0)
(1.62687e-13 6.14184e-13 0)
(1.18826e-13 5.8518e-13 0)
(2.69997e-13 5.27779e-13 0)
(2.72848e-13 6.14849e-13 0)
(7.73629e-14 5.84485e-13 0)
(-2.3593e-14 6.87113e-13 0)
(7.06774e-14 7.18739e-13 0)
(-7.12275e-14 6.51817e-13 0)
(-3.45945e-13 5.73182e-13 0)
(-2.93661e-13 5.58147e-13 0)
(-2.69504e-13 4.76747e-13 0)
(-1.76061e-13 5.24097e-13 0)
(-1.90182e-13 4.87258e-13 0)
(-3.24507e-13 5.64295e-13 0)
(-1.59831e-13 4.60769e-13 0)
(5.70308e-14 4.93077e-13 0)
(2.64713e-13 6.09547e-13 0)
(3.84899e-13 6.60526e-13 0)
(2.23528e-13 7.54056e-13 0)
(4.10396e-14 8.0534e-13 0)
(3.22592e-14 8.3248e-13 0)
(-4.37292e-14 8.00031e-13 0)
(-1.123e-13 7.39038e-13 0)
(-2.39004e-14 6.37741e-13 0)
(3.54534e-14 7.02394e-13 0)
(-6.34872e-14 7.22286e-13 0)
(-2.21872e-14 6.2724e-13 0)
(-2.58816e-14 5.68492e-13 0)
(4.44029e-15 6.63447e-13 0)
(3.99041e-14 8.44142e-13 0)
(-9.33356e-15 7.99808e-13 0)
(2.74768e-14 7.42357e-13 0)
(4.33221e-14 6.27414e-13 0)
(1.7385e-13 5.1285e-13 0)
(3.54998e-13 5.63162e-13 0)
(3.34216e-13 5.35532e-13 0)
(2.77246e-13 6.44059e-13 0)
(1.05299e-13 5.09836e-13 0)
(-2.05329e-13 5.03083e-13 0)
(-6.20796e-14 4.3166e-13 0)
(3.13663e-14 5.37212e-13 0)
(-6.34538e-14 6.89168e-13 0)
(-3.28347e-15 7.45409e-13 0)
(9.43977e-14 7.66028e-13 0)
(5.23717e-14 8.38722e-13 0)
(-6.23072e-14 8.48626e-13 0)
(-2.0902e-13 8.32856e-13 0)
(-2.78898e-13 8.42511e-13 0)
(-3.12608e-13 7.47314e-13 0)
(-2.35522e-13 6.03582e-13 0)
(-4.50085e-14 6.11997e-13 0)
(2.2385e-14 6.65512e-13 0)
(1.09896e-13 6.42159e-13 0)
(2.35235e-13 8.01653e-13 0)
(2.67345e-13 8.41468e-13 0)
(9.70102e-14 7.78099e-13 0)
(-5.42313e-14 7.8257e-13 0)
(-6.72301e-14 6.95653e-13 0)
(-1.22787e-13 5.45148e-13 0)
(-1.31709e-13 4.73333e-13 0)
(-9.87019e-14 6.22805e-13 0)
(7.491e-14 6.6364e-13 0)
(6.23832e-14 5.75584e-13 0)
(-2.10905e-13 6.30037e-13 0)
(-3.32969e-13 6.8258e-13 0)
(-2.44337e-13 6.0196e-13 0)
(-4.06286e-14 5.757e-13 0)
(1.86751e-15 7.04078e-13 0)
(-3.43114e-14 8.1576e-13 0)
(-2.61226e-14 8.25183e-13 0)
(-5.58529e-15 8.01256e-13 0)
(-5.89401e-14 8.06019e-13 0)
(-1.19176e-13 8.56288e-13 0)
(-1.33356e-13 8.32096e-13 0)
(-7.18852e-14 6.88373e-13 0)
(1.09082e-13 5.67994e-13 0)
(1.88414e-13 6.57158e-13 0)
(1.94776e-13 6.04287e-13 0)
(2.87002e-13 6.54785e-13 0)
(-1.57402e-13 6.82102e-13 0)
(-1.92309e-13 6.81523e-13 0)
(-1.0662e-13 5.40442e-13 0)
(1.32892e-13 3.97212e-13 0)
(-2.1492e-14 4.80272e-13 0)
(-1.76449e-14 3.21304e-13 0)
(2.76987e-13 2.84358e-13 0)
(4.09183e-13 3.55475e-13 0)
(3.81803e-13 3.70533e-13 0)
(1.91664e-13 4.98753e-13 0)
(-1.71233e-13 5.04381e-13 0)
(-3.73168e-14 4.02262e-13 0)
(2.87493e-13 2.40193e-13 0)
(1.85961e-13 3.94514e-13 0)
(1.67052e-13 2.91006e-13 0)
(8.8197e-14 2.77094e-13 0)
(-1.04213e-13 5.12865e-13 0)
(-2.14794e-13 6.30104e-13 0)
(-1.06318e-13 5.84211e-13 0)
(-1.10115e-13 4.8922e-13 0)
(-2.00519e-13 5.3235e-13 0)
(-2.32547e-13 4.50123e-13 0)
(-1.05485e-13 6.29159e-13 0)
(8.0138e-14 5.0106e-13 0)
(-5.17969e-14 5.95523e-13 0)
(-1.70787e-13 7.17294e-13 0)
(-2.03134e-13 7.07228e-13 0)
(-6.01247e-14 5.85825e-13 0)
(-8.89882e-14 4.74698e-13 0)
(-1.01586e-13 5.93551e-13 0)
(-4.94335e-14 6.74491e-13 0)
(9.40745e-14 5.75888e-13 0)
(2.55912e-13 5.13368e-13 0)
(1.56521e-13 2.86311e-13 0)
(4.18417e-14 5.67909e-13 0)
(-1.20236e-13 5.44585e-13 0)
(1.32057e-14 5.99242e-13 0)
(9.69271e-14 5.91447e-13 0)
(5.22777e-14 5.4875e-13 0)
(9.87149e-14 4.67994e-13 0)
(1.49461e-13 5.93897e-13 0)
(2.36915e-13 6.98695e-13 0)
(3.06937e-13 5.71032e-13 0)
(5.80672e-14 5.39507e-13 0)
(4.75374e-14 6.49716e-13 0)
(8.94163e-14 6.07772e-13 0)
(4.8211e-14 4.69711e-13 0)
(1.27797e-13 5.30376e-13 0)
(-2.89043e-14 4.29129e-13 0)
(-2.05914e-14 4.23374e-13 0)
(-1.98826e-14 3.14794e-13 0)
(-2.28481e-13 3.44263e-13 0)
(-2.08509e-13 4.36181e-13 0)
(1.08084e-13 3.64128e-13 0)
(2.37896e-13 5.03314e-13 0)
(1.3835e-13 5.17346e-13 0)
(1.10654e-13 6.06437e-13 0)
(4.06029e-14 6.1101e-13 0)
(1.99293e-14 5.08136e-13 0)
(-6.31958e-14 5.92616e-13 0)
(-2.84544e-13 5.90628e-13 0)
(-1.35245e-13 6.44515e-13 0)
(1.78222e-15 5.29513e-13 0)
(-1.93288e-13 4.81537e-13 0)
(-2.13124e-13 3.25245e-13 0)
(1.01182e-13 3.51158e-13 0)
(1.23908e-13 3.7166e-13 0)
(-3.19971e-14 2.68732e-13 0)
(-1.22602e-13 4.52798e-13 0)
(2.77378e-14 5.3937e-13 0)
(1.3531e-13 6.11927e-13 0)
(-7.11498e-14 5.60906e-13 0)
(-2.07923e-13 6.96116e-13 0)
(-2.54663e-13 6.26702e-13 0)
(-1.19854e-14 6.84982e-13 0)
(-1.75468e-14 5.03771e-13 0)
(-3.06561e-13 5.34824e-13 0)
(-3.1977e-13 6.69336e-13 0)
(5.1604e-14 5.57182e-13 0)
(1.16315e-13 6.9937e-13 0)
(-4.84e-14 6.00388e-13 0)
(-1.17301e-13 4.95359e-13 0)
(-1.28934e-13 4.51011e-13 0)
(-2.119e-13 4.6528e-13 0)
(-9.66424e-14 6.78231e-13 0)
(-2.2021e-14 6.2642e-13 0)
(2.77528e-13 6.37836e-13 0)
(3.6546e-13 4.98596e-13 0)
(5.27674e-14 5.16527e-13 0)
(-1.44009e-14 3.71253e-13 0)
(3.12036e-13 3.93327e-13 0)
(3.71537e-13 4.66213e-13 0)
(1.6182e-13 3.24606e-13 0)
(6.92556e-14 4.93585e-13 0)
(1.21469e-14 5.60367e-13 0)
(-1.43312e-13 4.16371e-13 0)
(-4.27795e-13 2.86844e-13 0)
(-4.02049e-13 3.92256e-13 0)
(-2.60179e-13 3.42985e-13 0)
(-6.07067e-14 3.99861e-13 0)
(-9.71958e-14 3.16989e-13 0)
(-2.49618e-13 6.19698e-13 0)
(-2.58019e-13 6.96052e-13 0)
(1.10094e-13 5.7487e-13 0)
(3.14748e-13 6.61222e-13 0)
(3.95099e-13 5.68746e-13 0)
(2.39354e-13 5.05384e-13 0)
(1.27734e-13 5.72784e-13 0)
(4.52933e-14 6.55706e-13 0)
(-3.29873e-14 7.18983e-13 0)
(-1.39807e-13 6.22671e-13 0)
(-2.35685e-15 6.01589e-13 0)
(8.72563e-14 5.53771e-13 0)
(-1.87384e-13 4.98339e-13 0)
(-2.316e-13 4.22144e-13 0)
(-6.20079e-14 5.64153e-13 0)
(1.8099e-13 6.6902e-13 0)
(1.43061e-13 7.03175e-13 0)
(-6.56196e-16 6.2483e-13 0)
(4.91702e-15 4.74437e-13 0)
(-1.01534e-13 5.00256e-13 0)
(8.36764e-14 3.80187e-13 0)
(2.881e-13 4.60698e-13 0)
(4.47745e-13 4.78499e-13 0)
(3.68048e-13 5.7014e-13 0)
(2.64601e-14 4.74559e-13 0)
(-2.44246e-13 3.99318e-13 0)
(-1.08694e-13 4.46864e-13 0)
(1.38319e-13 3.61389e-13 0)
(5.86827e-14 5.8583e-13 0)
(-5.80798e-14 6.88999e-13 0)
(1.40462e-13 6.3712e-13 0)
(1.99163e-13 6.32627e-13 0)
(-4.59241e-15 5.62676e-13 0)
(-1.55312e-13 6.55603e-13 0)
(-3.30438e-13 7.29082e-13 0)
(-4.28467e-13 7.69354e-13 0)
(-3.13754e-13 7.77542e-13 0)
(-1.01967e-13 6.53211e-13 0)
(-6.87101e-14 7.02043e-13 0)
(1.50629e-13 5.93121e-13 0)
(3.51086e-13 6.73277e-13 0)
(2.02987e-13 6.70814e-13 0)
(5.24405e-14 6.64772e-13 0)
(-3.61322e-14 6.35323e-13 0)
(-1.62698e-13 5.2774e-13 0)
(-2.43941e-13 4.75628e-13 0)
(-8.43572e-14 3.67746e-13 0)
(1.40369e-14 4.63131e-13 0)
(1.82906e-14 3.90398e-13 0)
(-3.73526e-14 2.39833e-13 0)
(-1.52218e-13 4.47676e-13 0)
(-2.99249e-13 5.82186e-13 0)
(-2.34304e-13 5.87634e-13 0)
(5.40392e-14 6.18643e-13 0)
(1.02723e-13 4.40271e-13 0)
(3.6855e-14 5.39738e-13 0)
(-4.17477e-14 5.89075e-13 0)
(-1.69546e-14 4.88073e-13 0)
(-2.90464e-16 6.02646e-13 0)
(-1.31916e-13 7.10061e-13 0)
(-2.14889e-13 7.97986e-13 0)
(-1.93917e-13 7.97837e-13 0)
(1.02214e-13 7.95234e-13 0)
(1.31544e-13 7.0389e-13 0)
(1.48622e-13 6.15843e-13 0)
(4.0453e-13 7.07387e-13 0)
(-1.15483e-13 3.41814e-13 0)
(-2.00122e-13 3.17916e-13 0)
(-3.24516e-13 3.72197e-13 0)
(4.19286e-14 1.94854e-13 0)
(3.5776e-14 2.39962e-13 0)
(3.58217e-14 2.2276e-13 0)
(2.85535e-13 3.05754e-13 0)
(3.50965e-13 2.55127e-13 0)
(4.53247e-13 1.79603e-13 0)
(2.46419e-13 8.87577e-14 0)
(-1.41358e-13 1.68807e-14 0)
(-1.66683e-13 8.60333e-14 0)
(2.34798e-13 5.76618e-14 0)
(2.03682e-13 1.10634e-13 0)
(6.85728e-14 4.46081e-14 0)
(2.4771e-13 4.24661e-14 0)
(7.90584e-14 1.97436e-13 0)
(-1.81099e-13 2.45229e-13 0)
(-2.28367e-13 2.62492e-13 0)
(-2.04018e-13 7.86084e-14 0)
(-2.70058e-13 6.75225e-14 0)
(-1.3916e-13 1.38117e-13 0)
(-2.41528e-15 2.9983e-13 0)
(3.76445e-15 2.04788e-13 0)
(1.18202e-13 2.10649e-13 0)
(-4.34466e-14 3.08705e-13 0)
(-2.03124e-13 3.23096e-13 0)
(-2.72374e-13 4.12368e-13 0)
(-6.60469e-14 2.80722e-13 0)
(9.74046e-14 2.51188e-13 0)
(2.89935e-14 3.56471e-13 0)
(5.24626e-14 3.0796e-13 0)
(3.49006e-14 2.51279e-13 0)
(1.04495e-13 1.75291e-13 0)
(1.33685e-13 1.38471e-13 0)
(-4.6805e-14 6.98743e-14 0)
(6.51303e-14 1.73954e-13 0)
(6.03962e-14 2.08027e-13 0)
(-8.09251e-15 3.61662e-13 0)
(1.33278e-13 4.42066e-13 0)
(3.38277e-13 5.95221e-13 0)
(1.41216e-13 6.30501e-13 0)
(1.53888e-13 4.81453e-13 0)
(1.40454e-13 3.17846e-13 0)
(6.34471e-14 3.07438e-13 0)
(-6.66162e-14 2.72961e-13 0)
(-1.4287e-14 2.17091e-13 0)
(8.86268e-14 1.45428e-13 0)
(-1.25039e-13 8.90768e-14 0)
(-1.14053e-13 7.66547e-14 0)
(-2.90987e-14 -2.19252e-14 0)
(-7.88154e-14 -9.28145e-14 0)
(-2.66049e-13 8.84485e-14 0)
(7.59382e-14 -1.01714e-14 0)
(2.56142e-13 5.68903e-14 0)
(2.64471e-13 4.80624e-16 0)
(2.16353e-13 2.16915e-13 0)
(9.27139e-15 2.3772e-13 0)
(-3.5038e-14 1.80609e-13 0)
(-7.25919e-14 1.3831e-13 0)
(-2.13473e-13 1.69989e-13 0)
(-2.28942e-13 2.37486e-13 0)
(-1.53047e-13 1.31228e-13 0)
(-2.68753e-13 1.33243e-13 0)
(-1.58236e-13 1.82872e-13 0)
(1.50601e-13 2.15064e-13 0)
(-3.29798e-14 1.33396e-13 0)
(-1.48643e-14 1.88181e-14 0)
(7.54967e-14 8.4647e-14 0)
(1.33743e-13 2.24393e-13 0)
(8.10329e-14 1.87209e-13 0)
(4.81785e-15 2.60045e-13 0)
(-7.66427e-14 3.35134e-13 0)
(-1.43055e-13 4.3582e-13 0)
(-2.0197e-13 5.32923e-13 0)
(-1.97404e-13 2.97861e-13 0)
(-1.35205e-13 2.13616e-13 0)
(-2.59174e-13 4.54994e-13 0)
(6.62204e-14 5.05182e-13 0)
(1.70125e-13 4.95697e-13 0)
(-5.22878e-14 4.27609e-13 0)
(-2.37359e-13 3.91035e-13 0)
(-2.19657e-13 3.19476e-13 0)
(2.81565e-15 3.87287e-13 0)
(-3.1625e-14 5.08769e-13 0)
(-1.20853e-13 4.77892e-13 0)
(8.52924e-14 3.24909e-13 0)
(1.99117e-13 2.02119e-13 0)
(-1.37571e-14 1.78215e-13 0)
(4.24134e-14 2.58112e-13 0)
(4.03455e-13 2.87848e-13 0)
(1.72462e-13 1.96037e-13 0)
(1.01831e-13 6.61764e-14 0)
(1.7574e-13 2.86047e-14 0)
(2.75207e-14 4.83694e-14 0)
(-2.65681e-13 1.5359e-14 0)
(-3.05097e-13 1.64021e-13 0)
(-2.38733e-13 2.7256e-13 0)
(-2.70523e-13 3.04007e-13 0)
(-1.3853e-13 3.08005e-13 0)
(3.86531e-14 2.75225e-13 0)
(-7.05069e-14 2.89159e-13 0)
(-2.4011e-13 4.76579e-13 0)
(6.26303e-14 4.8307e-13 0)
(2.79194e-13 4.21879e-13 0)
(2.21205e-13 2.7529e-13 0)
(1.60416e-13 1.75067e-13 0)
(1.73642e-13 2.22256e-13 0)
(1.42201e-13 1.91705e-13 0)
(-1.18256e-14 2.68976e-13 0)
(-1.39365e-13 1.87082e-13 0)
(-5.16117e-14 2.59518e-13 0)
(-6.74813e-14 1.56889e-13 0)
(-2.39342e-13 2.11215e-13 0)
(-4.26983e-14 3.57402e-13 0)
(1.22089e-13 5.39401e-13 0)
(8.79989e-14 5.13086e-13 0)
(3.05384e-14 2.72802e-13 0)
(-1.01196e-13 2.06052e-13 0)
(-7.68604e-14 6.96251e-14 0)
(-9.0021e-14 1.86339e-13 0)
(1.2739e-13 3.38578e-13 0)
(4.01705e-13 2.84418e-13 0)
(4.4531e-13 2.47776e-13 0)
(2.70094e-13 2.24512e-13 0)
(-1.07271e-14 1.74813e-13 0)
(-2.05301e-13 1.26569e-13 0)
(-2.11505e-13 2.2569e-13 0)
(9.07275e-14 2.20904e-13 0)
(2.63495e-13 2.95145e-13 0)
(6.2951e-14 3.93022e-13 0)
(3.76372e-14 3.68093e-13 0)
(2.99729e-14 2.6383e-13 0)
(-6.50927e-15 2.06907e-13 0)
(2.41889e-15 2.61834e-13 0)
(-2.26925e-13 3.79412e-13 0)
(-3.58639e-13 5.53949e-13 0)
(-3.75872e-13 6.05853e-13 0)
(-1.16371e-13 3.87377e-13 0)
(-4.91345e-14 4.25737e-13 0)
(6.26998e-14 4.01805e-13 0)
(2.99352e-13 2.71359e-13 0)
(2.36254e-13 2.34007e-13 0)
(9.61864e-14 2.31731e-13 0)
(-1.00784e-13 1.76613e-13 0)
(-1.98841e-13 1.12417e-13 0)
(-2.86462e-13 2.19341e-13 0)
(-1.036e-13 2.29796e-13 0)
(-4.91224e-14 2.21622e-13 0)
(-1.53124e-13 2.35285e-13 0)
(7.2703e-14 2.14255e-13 0)
(9.52799e-14 2.9675e-13 0)
(-1.57189e-13 3.56722e-13 0)
(-2.52481e-13 4.24635e-13 0)
(-1.94882e-13 3.66372e-13 0)
(-5.92882e-14 1.1151e-13 0)
(1.37876e-13 6.66639e-14 0)
(-6.08858e-14 1.69768e-13 0)
(3.60931e-14 1.95651e-13 0)
(2.03367e-13 2.5802e-13 0)
(1.51371e-14 3.66218e-13 0)
(-8.62597e-14 5.15315e-13 0)
(-1.12196e-13 5.73994e-13 0)
(1.46748e-14 4.43865e-13 0)
(2.74345e-14 4.11659e-13 0)
(1.54279e-13 5.15804e-13 0)
(3.45845e-13 4.79085e-13 0)
(3.58772e-14 7.65426e-15 0)
(-1.18306e-13 -5.9193e-14 0)
(-1.96311e-13 7.57183e-14 0)
(1.4716e-14 3.14276e-13 0)
(-5.55341e-15 1.84125e-13 0)
(6.79512e-14 3.13937e-13 0)
(3.38685e-13 3.51295e-13 0)
(2.27515e-13 1.49063e-13 0)
(2.64507e-13 1.05769e-13 0)
(7.61518e-14 -1.3501e-13 0)
(-2.51914e-13 -2.7599e-13 0)
(1.41035e-16 -7.62955e-14 0)
(4.25458e-13 3.39406e-13 0)
(2.06837e-13 2.16309e-13 0)
(2.07163e-14 3.36634e-13 0)
(2.80856e-13 2.84443e-13 0)
(1.27305e-13 2.50568e-13 0)
(-1.63339e-13 1.13452e-13 0)
(-3.12624e-13 7.66982e-14 0)
(-3.18077e-13 -7.15075e-14 0)
(-9.83276e-14 -6.9936e-14 0)
(1.3443e-14 7.58164e-14 0)
(-2.66073e-14 1.95931e-14 0)
(-5.81231e-14 1.17791e-13 0)
(-1.38729e-14 5.84518e-14 0)
(-1.2955e-13 8.65282e-14 0)
(-1.15316e-13 1.95589e-14 0)
(-7.7083e-14 7.83698e-14 0)
(-1.91197e-13 2.78351e-13 0)
(-5.8131e-14 5.26375e-14 0)
(5.83282e-14 1.58912e-14 0)
(2.75744e-14 1.20213e-13 0)
(1.26425e-13 -1.28997e-13 0)
(6.88984e-14 -4.49287e-14 0)
(-7.71155e-14 -2.45484e-13 0)
(-1.02716e-13 -1.18986e-13 0)
(1.18254e-13 -1.38765e-13 0)
(3.30884e-13 -7.0468e-14 0)
(2.06712e-13 1.73903e-13 0)
(2.49349e-13 3.71869e-13 0)
(3.1699e-13 4.67342e-13 0)
(1.84657e-13 3.4679e-13 0)
(-4.74819e-14 3.75237e-13 0)
(-1.37788e-13 1.08818e-13 0)
(9.1504e-15 -4.71998e-14 0)
(8.37266e-14 1.20965e-13 0)
(-3.49158e-14 2.91466e-13 0)
(2.95502e-15 4.54396e-14 0)
(-1.07803e-13 4.59675e-14 0)
(-1.36696e-13 -1.13861e-14 0)
(-1.76707e-13 9.69799e-14 0)
(-1.47512e-13 -1.51916e-13 0)
(-1.10456e-13 -1.43294e-13 0)
(1.83081e-14 -1.00693e-14 0)
(1.80057e-13 -1.49336e-13 0)
(3.55767e-13 -1.42365e-13 0)
(3.92186e-13 -3.44042e-14 0)
(6.97303e-14 -9.05831e-14 0)
(-7.39579e-14 4.75665e-14 0)
(-1.31068e-13 -3.44869e-14 0)
(-2.18313e-13 -7.17424e-14 0)
(-1.64075e-13 -1.49766e-13 0)
(-7.692e-14 -1.66822e-13 0)
(-1.44125e-13 -8.54938e-14 0)
(-1.32557e-13 2.00571e-13 0)
(4.23345e-15 1.19722e-13 0)
(-1.10153e-13 5.30874e-14 0)
(-1.19889e-13 6.57154e-14 0)
(2.09265e-14 -2.77637e-13 0)
(1.34009e-13 -2.45347e-13 0)
(2.17239e-13 -1.10465e-13 0)
(7.50128e-14 1.04356e-13 0)
(-3.46456e-14 2.46959e-14 0)
(-7.42147e-15 1.62993e-13 0)
(-1.37113e-13 1.87525e-13 0)
(-2.98224e-13 2.99177e-13 0)
(-1.86819e-13 9.63608e-14 0)
(5.06224e-14 1.38507e-13 0)
(1.25696e-13 4.03936e-13 0)
(5.635e-14 1.70367e-13 0)
(-1.76759e-13 8.87426e-14 0)
(-2.28186e-13 2.2056e-13 0)
(-1.44492e-13 1.84391e-13 0)
(-1.65568e-14 2.34549e-13 0)
(-5.79118e-14 1.67117e-13 0)
(-2.32457e-13 1.47566e-13 0)
(2.07489e-14 3.2512e-14 0)
(2.14619e-13 -4.00591e-14 0)
(1.17936e-13 -5.22584e-14 0)
(9.41244e-14 1.92112e-13 0)
(2.02157e-13 9.78704e-14 0)
(1.70244e-13 -1.93694e-14 0)
(-1.1402e-14 4.05533e-14 0)
(-5.69796e-14 -2.93988e-13 0)
(8.93595e-16 -3.75275e-13 0)
(-3.27055e-15 -1.08675e-13 0)
(-1.68817e-13 2.28356e-13 0)
(-3.10267e-13 2.06565e-13 0)
(-1.90002e-13 3.13523e-13 0)
(-3.4494e-14 3.09242e-13 0)
(-9.34518e-14 3.64553e-13 0)
(-1.14776e-13 1.14868e-13 0)
(-2.10007e-15 1.37416e-13 0)
(5.99742e-14 3.72548e-13 0)
(9.05845e-14 1.21371e-13 0)
(1.26096e-13 -1.97083e-14 0)
(2.04393e-13 4.76656e-14 0)
(1.15092e-13 -5.63714e-15 0)
(5.15919e-14 -1.70211e-14 0)
(-4.67649e-14 -1.25135e-13 0)
(-1.34001e-13 -1.66142e-13 0)
(6.68419e-15 -1.75076e-13 0)
(5.18575e-14 -1.81746e-13 0)
(-4.24452e-14 5.20129e-14 0)
(7.56224e-15 2.68307e-13 0)
(2.63969e-14 1.63772e-13 0)
(-1.66892e-13 1.20959e-13 0)
(-1.33015e-13 -7.68439e-14 0)
(-1.1226e-13 -9.78875e-14 0)
(-2.57404e-16 -1.61054e-13 0)
(1.85215e-13 -9.80552e-14 0)
(1.49776e-13 8.33254e-14 0)
(1.66173e-13 7.57733e-14 0)
(3.17278e-13 -1.20323e-14 0)
(2.64888e-13 -1.46887e-13 0)
(-4.32146e-14 -2.17126e-13 0)
(-1.31902e-13 -3.51645e-13 0)
(-3.51578e-14 -2.21702e-13 0)
(1.61016e-13 -4.80752e-14 0)
(2.07509e-13 -8.76052e-14 0)
(4.67467e-14 -1.01217e-13 0)
(-9.92247e-15 4.50371e-14 0)
(1.77679e-14 -4.27265e-14 0)
(6.33225e-14 1.376e-13 0)
(2.53512e-14 2.54889e-13 0)
(-7.67164e-14 2.99115e-13 0)
(-2.89458e-13 3.49492e-13 0)
(-5.09841e-13 3.73471e-13 0)
(-2.64038e-13 2.14624e-13 0)
(1.21439e-13 2.0391e-13 0)
(1.82314e-14 3.79667e-13 0)
(6.12862e-14 2.16619e-13 0)
(4.61827e-14 3.6623e-14 0)
(-8.84048e-14 -3.83052e-14 0)
(-6.59597e-14 -2.40313e-14 0)
(-5.08407e-14 6.3176e-15 0)
(-8.74041e-14 -2.91492e-14 0)
(-3.3812e-14 2.76129e-13 0)
(-8.9753e-14 1.98437e-13 0)
(-5.29294e-14 3.77691e-14 0)
(5.13207e-14 2.49777e-13 0)
(-1.92488e-14 1.20384e-13 0)
(-2.07269e-13 1.11782e-13 0)
(-3.07517e-13 6.68256e-14 0)
(-2.83438e-13 -1.817e-13 0)
(-1.09492e-13 -1.92322e-13 0)
(1.6097e-13 -3.21564e-13 0)
(2.0928e-13 -5.16955e-14 0)
(1.25825e-13 1.81182e-13 0)
(1.21612e-13 1.68521e-13 0)
(9.38802e-14 1.227e-13 0)
(-5.23757e-14 2.03077e-13 0)
(-3.06034e-13 2.37861e-13 0)
(-1.10084e-13 2.79315e-14 0)
(2.70662e-13 1.62613e-13 0)
(1.70846e-13 3.38221e-13 0)
(1.57725e-13 1.9205e-13 0)
(-6.70034e-14 -2.72869e-13 0)
(-2.38693e-13 -2.38349e-13 0)
(5.69525e-14 -1.50766e-13 0)
(1.21558e-13 1.37954e-13 0)
(5.81798e-15 2.02469e-13 0)
(1.88544e-13 3.33593e-13 0)
(1.02951e-13 1.85609e-13 0)
(7.96458e-14 -5.70405e-14 0)
(2.18192e-13 -5.53951e-14 0)
(-8.22562e-14 -1.88425e-13 0)
(-1.87049e-13 -2.01287e-13 0)
(3.39844e-13 5.13303e-14 0)
(5.96928e-13 2.62456e-13 0)
(3.04475e-13 7.89586e-14 0)
(1.26006e-13 2.55659e-13 0)
(1.24601e-13 2.47149e-13 0)
(3.58255e-14 5.83532e-14 0)
(-2.27653e-13 -3.68587e-14 0)
(-4.75083e-13 -1.15783e-13 0)
(-3.43273e-13 -4.3749e-14 0)
(-8.78219e-14 4.81409e-14 0)
(-4.53826e-14 -5.80578e-14 0)
(3.26419e-14 -1.42239e-13 0)
(-8.22181e-15 3.57381e-14 0)
(2.31601e-14 -2.40093e-14 0)
(-9.67209e-14 -1.06381e-13 0)
(-2.78154e-13 -1.55804e-13 0)
(1.36121e-14 -1.87381e-13 0)
(-9.53604e-14 2.69685e-15 0)
(-1.22943e-13 2.3829e-13 0)
(9.44642e-14 1.03702e-13 0)
(-8.29806e-14 7.93004e-14 0)
(-7.70608e-14 -1.99904e-13 0)
(-5.38755e-15 -2.18252e-13 0)
(2.69861e-14 -3.49701e-13 0)
(7.65012e-14 -1.86696e-13 0)
(9.63785e-14 -8.95786e-14 0)
(4.15134e-13 -8.46392e-15 0)
(3.98334e-13 1.53729e-13 0)
(3.80279e-13 1.88561e-13 0)
(3.03874e-13 3.02219e-14 0)
(9.45438e-14 -1.25419e-13 0)
(-1.32406e-13 -1.27265e-13 0)
(-2.56808e-13 -5.36841e-14 0)
(7.54469e-14 3.07794e-14 0)
(2.69215e-13 8.54161e-14 0)
(-1.80507e-14 9.5074e-14 0)
(-4.18065e-14 1.20412e-13 0)
(-1.48561e-13 1.04519e-13 0)
(-1.48257e-13 -2.50335e-14 0)
(-1.74269e-13 -1.2214e-13 0)
(-2.56984e-13 -3.22504e-14 0)
(-2.3724e-14 -9.98453e-14 0)
(5.0746e-14 -2.42412e-14 0)
(1.11061e-13 -4.52387e-14 0)
(3.62462e-13 -8.54723e-15 0)
(2.90395e-13 -1.27169e-13 0)
(9.81761e-14 -2.96295e-13 0)
(4.43929e-14 -2.87645e-14 0)
(-1.8308e-13 -6.08872e-14 0)
(-3.30104e-13 -3.04161e-14 0)
(-2.74782e-13 -1.15405e-13 0)
(-2.66721e-14 -1.18561e-13 0)
(6.70275e-14 -1.71022e-13 0)
(-1.9248e-14 -1.84686e-13 0)
(-5.10528e-14 -2.84186e-13 0)
(-1.23809e-13 -3.61847e-13 0)
(-3.25413e-13 -1.89756e-13 0)
(-1.99941e-13 -3.43945e-13 0)
(3.25999e-13 -3.17954e-13 0)
(4.23792e-13 -1.04221e-13 0)
(1.39369e-13 -1.51951e-13 0)
(5.81952e-15 -1.37684e-13 0)
(3.17199e-14 -1.3853e-13 0)
(-8.15366e-14 -1.83923e-13 0)
(-2.23088e-13 -1.18443e-13 0)
(-2.3096e-13 9.23092e-14 0)
(7.29601e-14 2.44375e-16 0)
(1.00294e-13 5.21189e-15 0)
(-1.45627e-13 -1.00238e-13 0)
(-5.16877e-14 -3.78494e-14 0)
(-1.81253e-13 1.18187e-13 0)
(-2.15237e-13 7.25431e-14 0)
(3.88077e-14 1.53939e-13 0)
(-1.03228e-13 1.04509e-14 0)
(-3.09798e-13 -9.98237e-14 0)
(-1.24475e-13 -3.39504e-14 0)
(1.73404e-13 -1.47601e-13 0)
(2.62413e-13 -2.13008e-13 0)
(1.57089e-13 -2.26468e-13 0)
(1.67121e-13 -3.06416e-13 0)
(1.02793e-13 -4.06529e-13 0)
(-1.98072e-13 -3.35239e-13 0)
(-1.85032e-13 -3.48688e-13 0)
(2.27459e-13 -2.69259e-13 0)
(2.37237e-13 -7.24979e-14 0)
(-7.46045e-14 -8.92884e-14 0)
(-1.79126e-13 8.39687e-15 0)
(-1.7567e-13 -3.48487e-14 0)
(-6.54308e-14 -1.04075e-13 0)
(-1.00619e-13 -1.74584e-13 0)
(-2.28007e-13 -9.88229e-14 0)
(8.6564e-14 -7.15264e-14 0)
(6.14644e-14 5.06037e-14 0)
(-1.16278e-13 -7.2922e-14 0)
(1.26892e-13 -1.05739e-13 0)
(1.79257e-13 -1.0519e-13 0)
(1.01081e-13 -1.63197e-13 0)
(-7.66971e-16 -7.7001e-14 0)
(-1.72626e-13 -2.85694e-13 0)
(-2.05348e-13 -1.42817e-13 0)
(-6.90865e-14 -2.19318e-13 0)
(1.79051e-13 -9.76805e-14 0)
(2.09904e-13 -6.84969e-14 0)
(1.43104e-14 -1.88665e-13 0)
(-4.72356e-14 -4.16888e-13 0)
(-1.56736e-13 -4.71224e-13 0)
(-1.57793e-13 -3.6865e-13 0)
(-1.44339e-13 -2.93942e-13 0)
(-7.8617e-14 -1.03212e-13 0)
(2.0143e-13 -2.20382e-13 0)
(3.20549e-13 -1.57392e-13 0)
(2.60685e-13 -1.90127e-13 0)
(1.78757e-13 -2.3241e-13 0)
(8.65974e-14 -5.52857e-13 0)
(-1.81965e-13 -6.05701e-13 0)
(-2.30274e-13 -4.88555e-13 0)
(1.77983e-13 -4.47308e-13 0)
(3.27977e-13 -3.04518e-13 0)
(1.80615e-13 -3.32052e-13 0)
(1.17996e-13 -3.88781e-13 0)
(8.48855e-15 -2.83516e-13 0)
(8.38014e-14 -2.31783e-13 0)
(2.80938e-13 -5.12959e-14 0)
(1.07688e-13 -6.38931e-14 0)
(-6.33535e-14 -2.66504e-14 0)
(-3.05039e-13 -2.61367e-14 0)
(-5.34251e-13 -2.51031e-14 0)
(-2.63158e-13 4.77216e-14 0)
(1.18946e-13 -1.22392e-13 0)
(-9.06761e-15 -5.69274e-14 0)
(1.49713e-15 -2.53531e-13 0)
(1.98391e-14 -3.91496e-13 0)
(-2.55184e-14 -4.18191e-13 0)
(-6.49454e-14 -3.41358e-13 0)
(-2.10495e-13 -2.90968e-13 0)
(-1.87258e-14 -2.58218e-13 0)
(7.29182e-14 -1.0032e-13 0)
(-2.41484e-13 -2.92539e-13 0)
(-4.70491e-14 -3.50471e-13 0)
(1.60362e-13 -2.77786e-13 0)
(-5.36095e-14 -3.30924e-13 0)
(-2.19616e-13 -5.03181e-13 0)
(-4.88196e-13 -4.54787e-13 0)
(-4.796e-13 -4.42351e-13 0)
(-1.20504e-13 -4.40199e-13 0)
(2.819e-13 -4.45012e-13 0)
(4.10404e-13 -4.7645e-13 0)
(2.13376e-13 -4.16952e-13 0)
(1.60953e-13 -3.83656e-13 0)
(8.99667e-14 -3.38904e-13 0)
(-2.36476e-14 -1.69947e-13 0)
(-3.0386e-13 -7.65941e-14 0)
(-8.64613e-14 -1.55988e-13 0)
(3.13566e-13 -2.43363e-13 0)
(2.24595e-13 -2.36513e-13 0)
(1.89459e-13 -2.51041e-13 0)
(1.27403e-14 -4.94612e-13 0)
(-3.2497e-14 -2.22106e-13 0)
(9.61037e-14 1.76755e-14 0)
(2.96329e-13 -6.40644e-14 0)
(1.44014e-13 1.23803e-13 0)
(9.65005e-14 7.6194e-14 0)
(-5.40719e-14 8.01364e-14 0)
(-9.58966e-15 2.76095e-14 0)
(7.1596e-14 -1.47729e-13 0)
(-3.25062e-14 -2.0685e-13 0)
(2.06933e-14 8.12274e-15 0)
(4.01119e-13 5.08418e-14 0)
(4.96266e-13 2.70332e-14 0)
(2.61097e-13 -9.19684e-14 0)
(2.04736e-13 -1.8515e-13 0)
(9.95921e-14 -1.17434e-13 0)
(-7.71998e-14 -1.56995e-13 0)
(-2.90531e-13 -2.30281e-13 0)
(-3.78026e-13 -2.13773e-13 0)
(-2.00575e-13 3.37883e-14 0)
(-1.13754e-13 -5.59359e-14 0)
(-1.13396e-13 -1.42869e-13 0)
(5.99109e-14 -1.13817e-13 0)
(6.23755e-14 -1.66835e-13 0)
(-1.05298e-13 -1.2018e-13 0)
(-1.70678e-13 -2.20809e-13 0)
(-1.57746e-13 2.99793e-14 0)
(3.90789e-14 8.70391e-14 0)
(1.67376e-13 -8.63036e-14 0)
(4.14504e-15 -4.67713e-16 0)
(-3.88527e-14 6.39015e-14 0)
(-2.71221e-13 2.52506e-14 0)
(-2.08757e-13 -3.15322e-14 0)
(-9.45125e-14 -1.8258e-13 0)
(5.93944e-15 -8.52249e-14 0)
(2.32467e-13 -1.66674e-13 0)
(2.76376e-13 -2.70163e-14 0)
(5.40082e-13 3.31844e-14 0)
(4.38197e-13 -1.52217e-14 0)
(2.10421e-13 -1.81223e-13 0)
(6.3971e-14 -2.77909e-13 0)
(-2.02912e-14 -2.34645e-13 0)
(3.586e-16 -1.85636e-13 0)
(-6.56518e-14 -1.33533e-14 0)
(1.28543e-13 1.2468e-13 0)
(1.5994e-13 -1.17733e-13 0)
(4.60484e-14 -1.60698e-13 0)
(2.00498e-14 -4.60082e-14 0)
(-2.07881e-13 -1.26999e-13 0)
(-3.35036e-13 -1.26828e-13 0)
(-2.35953e-13 -2.09675e-13 0)
(-1.04236e-13 -1.13099e-13 0)
(-6.26534e-14 -2.90132e-14 0)
(9.62621e-14 -1.42355e-13 0)
(2.04865e-13 -1.67283e-13 0)
(2.59211e-13 -1.07218e-13 0)
(1.05759e-13 -1.56551e-13 0)
(1.69089e-13 -2.03556e-13 0)
(1.77092e-13 -1.09936e-13 0)
(-1.25477e-13 -4.45085e-14 0)
(-2.80879e-13 3.81305e-14 0)
(-2.54379e-13 8.14089e-14 0)
(-1.23026e-13 3.68774e-14 0)
(-1.50184e-13 -7.25573e-14 0)
(-2.38715e-13 -3.56432e-13 0)
(-1.45152e-13 -4.42362e-13 0)
(2.5712e-14 -4.9746e-13 0)
(-8.03539e-14 -3.54897e-13 0)
(-7.68446e-14 -2.38108e-13 0)
(3.58352e-13 -1.67564e-13 0)
(4.32293e-13 -2.69064e-13 0)
(9.66962e-14 -3.69161e-13 0)
(-9.73754e-14 -2.14229e-13 0)
(-1.09842e-13 -2.88678e-13 0)
(-1.6583e-13 -3.19533e-13 0)
(-3.34472e-14 -2.04078e-13 0)
(-4.17761e-14 9.36662e-14 0)
(5.947e-15 5.10694e-14 0)
(1.51162e-16 -1.38035e-13 0)
(-6.70484e-14 -6.05929e-15 0)
(4.40265e-14 1.01517e-13 0)
(-1.15716e-13 9.39358e-14 0)
(-1.72917e-13 2.55772e-13 0)
(-7.08607e-14 2.22414e-13 0)
(-2.77525e-13 5.71052e-14 0)
(-2.46648e-13 -6.10053e-14 0)
(-4.2676e-14 8.798e-14 0)
(9.84351e-14 1.10809e-13 0)
(5.02365e-14 -2.15132e-14 0)
(-2.9043e-14 -3.58448e-13 0)
(4.63851e-14 -3.97875e-13 0)
(1.69766e-13 -4.69069e-13 0)
(4.34039e-14 -4.40266e-13 0)
(2.82933e-14 -1.44789e-13 0)
(2.18861e-13 -9.89335e-14 0)
(1.94393e-13 -3.12732e-13 0)
(-6.26264e-14 -4.15956e-13 0)
(-2.34565e-13 -2.99705e-13 0)
(-3.40045e-13 -2.82923e-13 0)
(-2.0316e-13 -1.98744e-13 0)
(-4.05207e-14 -1.88156e-13 0)
(-2.93339e-14 -4.21222e-14 0)
(1.78552e-13 5.27257e-14 0)
(6.49339e-14 -1.24808e-13 0)
(-9.39688e-14 -1.95015e-13 0)
(1.06976e-13 -9.99021e-14 0)
(1.06064e-13 -1.19722e-13 0)
(1.37502e-13 -1.96802e-13 0)
(-5.02875e-14 -2.55655e-13 0)
(-1.26626e-13 -2.55142e-13 0)
(-5.01191e-14 -2.13407e-13 0)
(2.41715e-14 2.19906e-15 0)
(2.52758e-13 -4.27903e-14 0)
(-3.17902e-14 -1.07288e-13 0)
(-2.9905e-13 -2.55196e-13 0)
(-2.48659e-13 -5.14285e-13 0)
(-7.75383e-14 -5.68491e-13 0)
(-2.66139e-14 -4.28874e-13 0)
(1.04264e-13 -3.36942e-13 0)
(6.69092e-14 -1.4952e-13 0)
(9.83887e-14 -2.65804e-13 0)
(2.18833e-13 -3.12402e-13 0)
(1.72983e-13 -4.68002e-13 0)
(-3.87813e-15 -4.64084e-13 0)
(-1.21439e-13 -6.27324e-13 0)
(6.5249e-15 -6.32934e-13 0)
(-2.03661e-14 -3.89061e-13 0)
(1.30291e-13 -2.90481e-13 0)
(2.84209e-13 -2.91708e-13 0)
(1.84707e-13 -2.88961e-13 0)
(1.2709e-13 -2.66245e-13 0)
(7.00094e-14 -2.35099e-13 0)
(1.49168e-13 -2.58299e-13 0)
(2.0261e-13 -2.47871e-13 0)
(5.86679e-14 -2.79526e-13 0)
(-7.04354e-14 -1.74254e-13 0)
(-2.91069e-13 -2.30265e-13 0)
(-4.41729e-13 -2.87654e-13 0)
(-3.5924e-13 -1.11305e-13 0)
(-5.52306e-14 -2.56985e-13 0)
(-1.03333e-13 -4.52682e-13 0)
(-2.07401e-13 -5.2151e-13 0)
(-7.7295e-14 -5.37089e-13 0)
(-3.14391e-14 -4.25619e-13 0)
(-9.39199e-15 -4.86072e-13 0)
(-5.44646e-16 -3.38136e-13 0)
(8.95766e-14 -2.20093e-13 0)
(-1.01772e-13 -3.65186e-13 0)
(-1.9726e-13 -3.48737e-13 0)
(6.8733e-15 -2.27843e-13 0)
(5.5792e-14 -3.36607e-13 0)
(-1.50115e-13 -2.72128e-13 0)
(-3.29905e-13 -3.62573e-13 0)
(-2.88617e-13 -3.60692e-13 0)
(-3.12713e-13 -1.58674e-13 0)
(-1.68567e-13 -3.03464e-13 0)
(8.35806e-14 -3.26454e-13 0)
(1.55781e-13 -4.98945e-13 0)
(1.58631e-13 -4.93782e-13 0)
(2.24159e-13 -5.38751e-13 0)
(2.95233e-13 -5.02391e-13 0)
(2.11058e-13 -2.96679e-13 0)
(-2.52914e-13 -3.09572e-13 0)
(-2.09872e-13 -2.00395e-13 0)
(1.89699e-13 -4.53961e-13 0)
(2.82701e-13 -5.12425e-13 0)
(2.41415e-13 -3.97539e-13 0)
(2.25998e-13 -2.04718e-13 0)
(2.77369e-13 -3.05936e-14 0)
(1.55375e-13 1.59419e-14 0)
(1.96959e-13 1.20506e-14 0)
(1.07976e-13 -1.77464e-15 0)
(1.36054e-13 -1.81551e-14 0)
(9.15561e-14 6.46078e-14 0)
(-8.66831e-14 1.97144e-13 0)
(-5.64898e-14 -3.60761e-14 0)
(3.09372e-14 6.50573e-14 0)
(1.95632e-13 2.23518e-13 0)
(4.07018e-13 1.23352e-13 0)
(4.03465e-13 -3.53328e-14 0)
(1.33648e-13 -5.13761e-15 0)
(1.06008e-13 -3.0467e-13 0)
(1.89374e-13 -3.91903e-13 0)
(-8.34855e-14 -2.47415e-13 0)
(-3.22848e-13 -1.3416e-13 0)
(-2.06671e-13 -8.73115e-15 0)
(-1.66997e-13 9.7756e-14 0)
(-2.9811e-13 -6.43807e-14 0)
(-1.15006e-13 -1.12442e-13 0)