/*--------------------------------*- C++ -*----------------------------------*\
  =========                 |
  \\      /  F ield         | OpenFOAM: The Open Source CFD Toolbox
   \\    /   O peration     | Website:  https://openfoam.org
    \\  /    A nd           | Version:  13
     \\/     M anipulation  |
\*---------------------------------------------------------------------------*/
FoamFile
{
    format      ascii;
    class       volVectorField;
    location    "0.0004";
    object      U;
}
// * * * * * * * * * * * * * * * * * * * * * * * * * * * * * * * * * * * * * //

dimensions      [0 1 -1 0 0 0 0];

internalField   nonuniform List<vector> 
33333
(
(-1.07206e-13 -1.22635e-13 0)
(-1.59028e-13 -5.17282e-14 0)
(-6.63232e-14 -1.4992e-14 0)
(3.24791e-14 -3.4785e-14 0)
(3.43692e-14 -9.557e-14 0)
(-3.13244e-14 3.55962e-14 0)
(1.53506e-13 8.188e-14 0)
(8.84659e-14 -3.86553e-14 0)
(4.5518e-14 -2.19641e-14 0)
(1.0796e-13 -6.06595e-14 0)
(1.90565e-14 -8.68511e-14 0)
(-1.23487e-13 -1.774e-13 0)
(-5.08834e-14 -5.21334e-14 0)
(6.04045e-14 -7.95907e-15 0)
(1.23724e-13 -9.46458e-15 0)
(3.58388e-14 3.12099e-14 0)
(-1.38241e-13 -3.04906e-14 0)
(-1.34964e-13 -4.98375e-14 0)
(-1.31606e-13 3.6433e-14 0)
(-3.40395e-14 3.30751e-14 0)
(1.17748e-13 -1.80775e-14 0)
(9.72161e-14 -1.95917e-14 0)
(6.41954e-14 4.36003e-14 0)
(3.60972e-14 4.17632e-15 0)
(-1.54855e-16 -2.61934e-14 0)
(-4.58478e-14 5.71615e-15 0)
(-8.30421e-14 -3.8861e-14 0)
(-7.80722e-14 -1.28898e-13 0)
(1.07111e-13 -8.15255e-14 0)
(2.42176e-13 -1.81103e-13 0)
(1.35467e-13 -1.45875e-13 0)
(4.28263e-14 -8.01762e-14 0)
(4.31108e-14 -9.27816e-14 0)
(-7.77057e-14 -8.95363e-14 0)
(-7.74718e-14 -2.66662e-14 0)
(-1.17874e-13 -4.38918e-14 0)
(-9.73091e-14 -8.15711e-14 0)
(-7.25845e-14 -2.53589e-14 0)
(-1.13e-13 -7.80731e-15 0)
(9.95765e-15 1.93134e-14 0)
(1.37704e-13 -5.95638e-14 0)
(4.29725e-14 -1.02014e-13 0)
(-5.93019e-14 -9.58244e-14 0)
(-1.29364e-14 -1.54501e-13 0)
(7.83668e-14 -1.47243e-13 0)
(1.21182e-13 -3.73006e-14 0)
(2.36536e-14 -2.1607e-14 0)
(-1.49233e-14 2.76395e-15 0)
(9.50018e-14 -1.19484e-13 0)
(2.44724e-14 -2.66054e-13 0)
(-1.99803e-14 -1.95948e-13 0)
(-6.59635e-14 -1.7729e-13 0)
(9.41193e-16 -1.91929e-13 0)
(8.64743e-14 -1.4972e-13 0)
(8.9861e-14 -1.11911e-13 0)
(4.49603e-14 -1.42649e-13 0)
(-8.77843e-14 -1.17169e-13 0)
(-1.63057e-13 -1.73457e-13 0)
(-2.13965e-13 1.16045e-15 0)
(-4.33513e-14 7.1866e-14 0)
(-8.40132e-14 6.13283e-14 0)
(-4.17037e-14 1.23391e-14 0)
(-1.00212e-14 7.43268e-15 0)
(-4.74913e-14 7.33528e-14 0)
(5.7449e-14 7.36446e-14 0)
(1.32003e-13 4.18729e-15 0)
(-4.17918e-14 -9.3223e-14 0)
(-4.23159e-17 -1.46993e-13 0)
(1.34618e-13 -2.05953e-13 0)
(7.22839e-14 -2.28285e-13 0)
(4.67504e-14 -4.18819e-14 0)
(1.7616e-13 4.20397e-14 0)
(1.8121e-13 -4.88679e-14 0)
(6.95472e-14 -1.04601e-13 0)
(-9.89834e-15 -1.26622e-13 0)
(-1.24528e-13 -1.51694e-13 0)
(-1.76531e-13 -9.04131e-14 0)
(-9.68944e-15 2.34005e-17 0)
(1.01454e-13 1.36146e-14 0)
(8.67249e-14 8.91211e-14 0)
(9.96546e-14 1.38655e-14 0)
(3.87166e-15 -5.95701e-14 0)
(-9.84572e-14 -1.87083e-13 0)
(-2.36814e-13 -9.60326e-14 0)
(-2.67967e-13 7.20407e-14 0)
(-1.23127e-13 1.19185e-13 0)
(-8.85858e-16 5.61864e-14 0)
(6.53062e-14 1.16569e-13 0)
(9.23585e-14 1.13149e-13 0)
(1.41332e-13 2.68183e-14 0)
(5.41922e-14 -1.01904e-14 0)
(-4.91285e-14 -2.663e-14 0)
(1.02424e-13 -1.04649e-13 0)
(1.13648e-13 -1.68331e-13 0)
(2.45924e-14 -1.92233e-13 0)
(-3.06045e-14 -8.7082e-14 0)
(-5.47984e-14 -1.42469e-15 0)
(-8.32301e-14 -3.22377e-14 0)
(-5.24092e-14 -5.18581e-15 0)
(-8.60014e-15 -1.29463e-13 0)
(-8.45863e-14 -1.04462e-13 0)
(-1.19323e-13 -8.8752e-14 0)
(-1.78033e-13 -1.10106e-13 0)
(-5.17583e-14 -4.44581e-15 0)
(-4.33679e-14 7.89343e-15 0)
(-1.15631e-13 -1.2803e-14 0)
(3.29078e-14 -2.04031e-14 0)
(9.00661e-14 -1.58444e-13 0)
(-2.81715e-14 -1.24827e-13 0)
(-5.34545e-14 -3.4103e-14 0)
(-1.08558e-13 -4.04147e-14 0)
(2.94205e-14 7.52079e-15 0)
(8.86129e-14 3.31829e-14 0)
(-4.3519e-14 2.3841e-14 0)
(-7.16675e-14 1.54024e-13 0)
(1.25627e-13 1.38721e-13 0)
(1.60284e-13 2.02424e-14 0)
(1.09165e-13 -2.78731e-14 0)
(1.48828e-13 -3.5156e-14 0)
(1.92436e-13 -1.2794e-13 0)
(1.29675e-13 -1.0322e-13 0)
(5.7915e-14 -1.22156e-13 0)
(9.98563e-14 -5.5338e-14 0)
(3.34347e-14 -3.70303e-14 0)
(-9.75665e-14 -7.9238e-14 0)
(-7.31318e-14 -1.12058e-13 0)
(-1.22327e-13 -1.70039e-13 0)
(-8.40521e-14 -1.23417e-13 0)
(2.78911e-14 -7.01124e-14 0)
(9.09908e-14 -8.25118e-14 0)
(3.76783e-14 -1.35316e-13 0)
(-3.8356e-14 -1.2464e-13 0)
(-6.01525e-14 -1.03729e-13 0)
(-8.50074e-14 -1.02823e-13 0)
(-1.27407e-13 -8.93357e-14 0)
(-9.43115e-14 -6.09505e-15 0)
(-1.15229e-13 3.26786e-14 0)
(-1.66411e-13 4.19023e-14 0)
(-4.65867e-14 4.71206e-14 0)
(1.17985e-13 -1.51464e-14 0)
(8.21811e-14 -3.98164e-14 0)
(5.09408e-14 1.98954e-14 0)
(6.10563e-14 5.82248e-14 0)
(7.45743e-15 2.38911e-14 0)
(-1.01452e-13 -1.625e-14 0)
(-1.87309e-13 -3.23187e-14 0)
(-1.66964e-14 -1.35032e-13 0)
(2.11737e-13 -1.34043e-13 0)
(1.94588e-13 -9.69087e-14 0)
(1.19042e-13 -1.41975e-13 0)
(-2.72349e-14 -1.12924e-13 0)
(-8.67597e-14 -1.33124e-14 0)
(-5.99858e-14 1.32509e-14 0)
(-4.87665e-14 7.3409e-15 0)
(5.08356e-14 -2.94221e-14 0)
(1.14447e-13 -1.11418e-13 0)
(-1.42657e-14 -1.14358e-13 0)
(-8.73814e-14 -7.12051e-14 0)
(-1.1584e-13 -1.16578e-13 0)
(-1.5164e-13 -1.04043e-13 0)
(-1.46336e-13 -5.09924e-14 0)
(-1.76246e-13 7.35129e-15 0)
(-1.10873e-13 3.25156e-14 0)
(5.22526e-15 -3.22381e-14 0)
(5.5544e-14 -9.14383e-15 0)
(4.49854e-14 2.97195e-14 0)
(5.85569e-14 -8.71371e-15 0)
(1.18407e-14 -2.1893e-13 0)
(-1.40528e-13 -1.60657e-13 0)
(-1.32679e-13 -9.19804e-14 0)
(-4.74567e-14 -5.88963e-14 0)
(6.95028e-14 -8.19036e-14 0)
(9.13982e-14 -7.35214e-14 0)
(9.1803e-14 -2.58436e-14 0)
(7.11606e-14 -1.30046e-13 0)
(5.17365e-14 -1.26369e-13 0)
(4.57323e-14 -1.93194e-13 0)
(-4.92309e-14 -2.26565e-13 0)
(-5.45203e-14 -2.53105e-13 0)
(6.74988e-15 -1.40872e-13 0)
(3.67118e-14 -1.33476e-13 0)
(8.83039e-14 -1.03988e-13 0)
(1.97652e-14 -8.50914e-14 0)
(-1.11671e-13 -1.12779e-13 0)
(-7.54639e-14 -1.01536e-13 0)
(-7.86463e-14 -6.54628e-14 0)
(-1.11801e-13 -1.70889e-14 0)
(4.73101e-14 -6.68878e-14 0)
(1.45598e-13 -1.20788e-13 0)
(4.16121e-14 -1.10674e-13 0)
(-1.35007e-14 -7.69923e-14 0)
(1.6581e-14 -1.26091e-13 0)
(-5.98565e-14 -1.44399e-13 0)
(-1.76768e-13 -1.87907e-13 0)
(-5.13286e-14 -1.92218e-13 0)
(1.03676e-13 -1.0679e-13 0)
(1.62372e-13 -1.75405e-13 0)
(1.26184e-13 -2.23136e-13 0)
(9.16549e-14 -2.83701e-13 0)
(1.32007e-13 -2.22435e-13 0)
(-7.15421e-16 -2.63077e-13 0)
(-7.51992e-14 -1.58171e-13 0)
(-1.61676e-13 -2.1684e-13 0)
(-7.81679e-14 -1.37301e-13 0)
(-4.44023e-14 -9.71976e-14 0)
(-8.33074e-14 -7.79616e-14 0)
(-5.35593e-14 -8.07391e-14 0)
(6.46049e-14 -1.12174e-13 0)
(2.27575e-14 -1.8704e-13 0)
(-8.3987e-14 -1.33467e-13 0)
(-1.29036e-14 -1.59195e-13 0)
(1.5142e-13 -1.23285e-13 0)
(1.72319e-13 -1.47402e-13 0)
(3.86316e-14 -1.31303e-13 0)
(-4.93251e-14 -9.12047e-14 0)
(-5.68137e-14 -1.42767e-13 0)
(3.38381e-14 -2.40883e-13 0)
(5.66768e-14 -3.29999e-13 0)
(-7.73269e-14 -3.75751e-13 0)
(7.31019e-15 -3.35655e-13 0)
(1.58244e-13 -2.7838e-13 0)
(1.15912e-13 -3.18475e-13 0)
(-2.22919e-14 -2.71822e-13 0)
(-1.33654e-13 -3.32379e-13 0)
(-4.89779e-14 -2.19064e-13 0)
(-4.01347e-14 -8.13484e-14 0)
(-2.2003e-14 8.35185e-14 0)
(-1.28159e-13 1.41344e-14 0)
(-7.85768e-14 6.01589e-14 0)
(2.05788e-14 -2.39965e-14 0)
(-6.18182e-15 -5.10745e-14 0)
(-1.48355e-14 -5.67391e-14 0)
(1.20723e-14 -7.58769e-14 0)
(-1.09479e-13 -1.70994e-13 0)
(-3.00501e-14 -1.61616e-13 0)
(8.25278e-14 -2.23323e-13 0)
(1.44951e-13 -2.32063e-13 0)
(1.94012e-13 -1.33829e-13 0)
(1.25753e-13 -9.39904e-14 0)
(4.35462e-14 -1.74037e-13 0)
(2.93462e-14 -2.04722e-13 0)
(6.47254e-14 -3.09744e-13 0)
(-4.30006e-14 -3.34161e-13 0)
(-1.09957e-13 -2.09227e-13 0)
(-2.07561e-14 -1.04347e-13 0)
(1.09958e-13 -1.15556e-13 0)
(7.34856e-14 -6.16748e-14 0)
(7.1243e-16 -4.31406e-14 0)
(-6.9927e-14 -4.30733e-14 0)
(-4.07463e-14 -1.00076e-13 0)
(-8.30568e-14 -1.89344e-13 0)
(-1.78571e-13 -5.49299e-14 0)
(-1.93292e-13 8.16923e-15 0)
(-2.38566e-14 3.67688e-14 0)
(1.12429e-13 6.93694e-14 0)
(6.91504e-14 3.56265e-14 0)
(4.5398e-14 -6.11188e-14 0)
(5.45235e-14 -9.2626e-14 0)
(-4.52327e-14 -8.60211e-14 0)
(3.34866e-14 -8.83272e-14 0)
(6.77038e-14 -2.2784e-13 0)
(7.74886e-14 -2.67403e-13 0)
(6.63147e-14 -2.3679e-13 0)
(-6.23378e-14 -1.62808e-13 0)
(-1.23967e-13 -1.9842e-13 0)
(-8.84784e-14 -7.08552e-14 0)
(-3.43581e-14 -2.23689e-13 0)
(-5.47826e-15 -2.74133e-13 0)
(-1.29072e-13 -2.44006e-13 0)
(-1.01677e-13 -1.30837e-13 0)
(-1.92017e-14 -1.20257e-13 0)
(-1.02187e-13 -1.17854e-13 0)
(-1.93159e-13 -1.19089e-13 0)
(-8.73127e-14 -7.21075e-14 0)
(5.88197e-14 -2.08222e-13 0)
(8.42374e-14 -1.47463e-13 0)
(2.05675e-14 -4.04295e-14 0)
(-3.86066e-14 3.25222e-14 0)
(7.12783e-14 6.7276e-14 0)
(6.06221e-14 4.1623e-14 0)
(4.78657e-15 -1.0277e-14 0)
(-8.16773e-15 4.78236e-14 0)
(4.66032e-14 5.61952e-14 0)
(1.14168e-13 -6.91265e-14 0)
(6.04641e-14 -2.10323e-13 0)
(9.94201e-14 -2.04908e-13 0)
(1.46262e-13 -1.88783e-13 0)
(1.21753e-13 -2.50391e-13 0)
(6.60262e-14 -3.06562e-13 0)
(6.61277e-14 -2.63737e-13 0)
(2.4089e-14 -2.51918e-13 0)
(-5.52268e-14 -2.36167e-13 0)
(-1.16594e-13 -2.99648e-13 0)
(-8.71426e-14 -3.15584e-13 0)
(-1.51219e-14 -2.5833e-13 0)
(6.98954e-14 -2.45652e-13 0)
(1.9148e-14 -2.94588e-13 0)
(-5.51136e-14 -3.3803e-13 0)
(-8.71315e-15 -3.24858e-13 0)
(1.37846e-14 -2.38088e-13 0)
(-5.54213e-14 -3.01048e-13 0)
(-5.15196e-14 -1.69192e-13 0)
(-8.64733e-14 -1.74928e-13 0)
(-6.4212e-14 -1.59316e-13 0)
(-1.12052e-13 -1.5556e-13 0)
(-5.66602e-14 -9.71326e-14 0)
(2.52022e-14 -1.70469e-13 0)
(1.02421e-13 -2.4956e-13 0)
(1.21042e-13 -1.40038e-13 0)
(2.22088e-14 -9.31894e-14 0)
(-6.505e-14 -1.00495e-13 0)
(-1.23531e-13 -1.75394e-13 0)
(-1.99044e-13 -1.43887e-13 0)
(-3.62154e-14 -2.13093e-13 0)
(2.3732e-13 -2.82063e-13 0)
(1.58646e-13 -2.92053e-13 0)
(7.18855e-14 -3.58398e-13 0)
(-6.19687e-15 -3.65564e-13 0)
(-2.69851e-14 -2.10076e-13 0)
(-6.95089e-14 -1.24801e-13 0)
(-8.6873e-14 -1.81581e-13 0)
(3.4194e-14 -2.61136e-13 0)
(8.28624e-14 -4.06252e-13 0)
(1.98706e-15 -3.73462e-13 0)
(-8.29248e-14 -3.41037e-13 0)
(-9.16924e-14 -3.66102e-13 0)
(-7.04682e-14 -2.34822e-13 0)
(-8.7141e-14 -2.00959e-13 0)
(-1.17587e-13 -1.48823e-13 0)
(-1.74961e-13 -9.04516e-14 0)
(-1.69691e-14 -3.7253e-14 0)
(1.04243e-13 -5.98846e-14 0)
(4.38959e-14 -7.98312e-14 0)
(-2.35444e-14 -9.35479e-14 0)
(-3.56413e-14 -2.74086e-13 0)
(-3.18394e-14 -2.30454e-13 0)
(-4.68812e-14 -1.20958e-13 0)
(-3.40675e-15 -1.11489e-13 0)
(-5.28043e-15 -8.35467e-14 0)
(3.69623e-14 -1.70015e-13 0)
(7.7319e-14 -1.74249e-13 0)
(-2.10336e-14 -2.17943e-13 0)
(2.55841e-14 -1.90075e-13 0)
(4.80416e-14 -2.02144e-13 0)
(-4.11893e-14 -2.08037e-13 0)
(-3.26313e-14 -1.72378e-13 0)
(5.62272e-14 -1.6353e-13 0)
(3.15178e-14 -1.13775e-13 0)
(1.19176e-13 -1.66959e-13 0)
(8.39797e-14 -1.83965e-13 0)
(-6.39332e-14 -1.47331e-13 0)
(-1.07319e-13 -1.21637e-13 0)
(-6.31901e-14 -1.39886e-13 0)
(-6.25665e-14 -1.39409e-13 0)
(-3.79107e-15 -7.2528e-14 0)
(8.01517e-14 -1.46227e-13 0)
(9.89849e-14 -1.75155e-13 0)
(2.16092e-14 -1.37291e-13 0)
(-7.10107e-14 -1.03666e-13 0)
(-1.10775e-13 -2.18127e-13 0)
(-1.31649e-13 -2.25529e-13 0)
(-4.93259e-14 -1.54903e-13 0)
(9.17182e-14 -2.02914e-13 0)
(1.34819e-13 -1.3763e-13 0)
(5.23968e-14 -2.05598e-13 0)
(3.97033e-14 -2.28276e-13 0)
(7.22353e-14 -3.48795e-13 0)
(7.66815e-14 -3.32793e-13 0)
(1.94728e-14 -2.47033e-13 0)
(-9.12164e-14 -1.67496e-13 0)
(-3.38148e-14 -6.35293e-14 0)
(-6.57203e-14 -1.77063e-13 0)
(-7.66046e-14 -1.46206e-13 0)
(2.15572e-15 -1.48476e-13 0)
(2.33315e-14 -9.99779e-14 0)
(-2.30992e-14 -1.85639e-13 0)
(-5.59441e-14 -1.74753e-13 0)
(1.83853e-14 -1.03215e-13 0)
(9.95238e-14 -1.17878e-13 0)
(9.97745e-14 -1.49814e-13 0)
(3.87673e-14 -1.93378e-13 0)
(5.90029e-15 -1.58393e-13 0)
(-6.74867e-14 -1.2527e-13 0)
(-6.81646e-14 -1.56933e-13 0)
(-7.68249e-14 -2.88063e-13 0)
(-4.55174e-14 -2.71776e-13 0)
(5.56731e-14 -2.30703e-13 0)
(1.05632e-13 -2.22922e-13 0)
(5.60511e-14 -2.36029e-13 0)
(2.9446e-14 -3.05247e-13 0)
(1.91231e-14 -2.40769e-13 0)
(1.44815e-14 -1.6284e-13 0)
(7.04992e-14 -9.72562e-14 0)
(3.99238e-14 -3.93065e-14 0)
(-7.267e-14 -6.0374e-14 0)
(-6.40012e-14 1.08973e-14 0)
(-1.17869e-13 -6.02964e-14 0)
(-7.41512e-14 -1.13587e-13 0)
(5.15673e-14 -1.67797e-13 0)
(-3.27849e-14 -2.52256e-13 0)
(-1.01011e-13 -2.88471e-13 0)
(-2.64512e-14 -1.97723e-13 0)
(6.08365e-14 -2.72811e-13 0)
(1.28438e-13 -1.84221e-13 0)
(1.54612e-13 -2.35977e-13 0)
(7.76783e-14 -2.22876e-13 0)
(8.81159e-14 -2.46328e-13 0)
(2.23437e-14 -1.91214e-13 0)
(-4.95277e-14 -2.29326e-13 0)
(-2.45472e-14 -2.92162e-13 0)
(-1.88524e-15 -2.54375e-13 0)
(4.10213e-14 -1.64803e-13 0)
(6.5174e-14 -1.66147e-13 0)
(1.18582e-13 -1.4624e-13 0)
(9.34036e-14 -1.26219e-14 0)
(-4.66217e-14 5.83007e-14 0)
(-1.60602e-13 -3.1217e-14 0)
(-1.3056e-13 -1.12333e-13 0)
(-8.4725e-14 -9.85851e-14 0)
(-8.24185e-14 -1.05915e-13 0)
(3.06089e-14 -1.07885e-14 0)
(2.19341e-14 -6.18639e-14 0)
(-5.34779e-15 -1.28174e-13 0)
(9.14409e-14 -1.36199e-13 0)
(7.39008e-14 -1.11727e-13 0)
(-2.56326e-14 -1.27565e-13 0)
(-1.82124e-14 -8.24893e-14 0)
(-1.75974e-14 -1.71931e-13 0)
(1.65066e-14 -1.60963e-13 0)
(2.6062e-14 -2.32534e-13 0)
(-5.69013e-14 -2.43052e-13 0)
(-1.70733e-14 -1.7612e-13 0)
(-5.1992e-14 -9.85716e-14 0)
(-1.15203e-13 -1.3266e-13 0)
(-3.6519e-14 -2.51124e-13 0)
(-2.37762e-14 -2.69827e-13 0)
(-5.39484e-14 -1.80979e-13 0)
(-6.99716e-14 -1.86897e-13 0)
(-9.45144e-14 -1.91823e-13 0)
(-1.17242e-13 -2.23578e-13 0)
(-8.50938e-14 -1.00409e-13 0)
(-1.51657e-14 -1.54789e-13 0)
(1.45866e-13 -1.51422e-13 0)
(1.2449e-13 -7.91225e-14 0)
(3.63993e-14 -2.49437e-15 0)
(6.36269e-14 -2.69203e-14 0)
(3.0972e-15 -9.03523e-14 0)
(-4.60079e-14 -9.54467e-14 0)
(6.5614e-15 -1.06626e-13 0)
(4.13653e-14 -1.44267e-13 0)
(-3.46304e-14 -2.24381e-13 0)
(-3.38243e-14 -3.21048e-13 0)
(1.2806e-13 -3.42466e-13 0)
(1.87223e-13 -2.6032e-13 0)
(5.19066e-14 -2.9166e-13 0)
(3.07658e-14 -3.31601e-13 0)
(8.17497e-14 -3.38578e-13 0)
(5.70756e-14 -3.25088e-13 0)
(-1.07794e-13 -3.57417e-13 0)
(-1.02788e-13 -3.64502e-13 0)
(-2.44951e-14 -3.40249e-13 0)
(-4.93314e-15 -2.88848e-13 0)
(-4.87752e-15 -3.3218e-13 0)
(-4.8866e-15 -3.23129e-13 0)
(-4.26078e-14 -3.53789e-13 0)
(2.36104e-14 -3.14823e-13 0)
(-5.02991e-14 -3.69559e-13 0)
(-4.57536e-14 -4.087e-13 0)
(4.36428e-15 -3.68576e-13 0)
(-4.74646e-14 -3.16094e-13 0)
(-9.9756e-14 -3.14423e-13 0)
(-7.8251e-14 -3.24443e-13 0)
(-2.90789e-14 -2.78217e-13 0)
(-2.38149e-14 -2.48822e-13 0)
(7.90703e-14 -3.15785e-13 0)
(1.52927e-13 -3.38807e-13 0)
(4.67321e-14 -3.00647e-13 0)
(-2.15167e-14 -3.04836e-13 0)
(-1.05141e-13 -3.64257e-13 0)
(-1.30842e-13 -3.38574e-13 0)
(-6.25112e-14 -2.33907e-13 0)
(1.31415e-13 -2.75639e-13 0)
(7.1786e-14 -3.4863e-13 0)
(-3.58268e-15 -4.19598e-13 0)
(5.90371e-14 -3.90885e-13 0)
(1.04066e-13 -3.33103e-13 0)
(-6.96586e-14 -3.40729e-13 0)
(-1.44342e-13 -4.13768e-13 0)
(-6.98233e-14 -4.29975e-13 0)
(-3.42255e-15 -4.31194e-13 0)
(3.86692e-14 -4.96947e-13 0)
(-2.54705e-14 -4.93684e-13 0)
(2.61293e-14 -4.51621e-13 0)
(1.84084e-14 -4.05648e-13 0)
(-4.9576e-14 -3.37412e-13 0)
(-9.97527e-14 -2.91473e-13 0)
(-6.78002e-14 -1.65945e-13 0)
(-1.32125e-14 -6.2011e-14 0)
(2.92895e-14 -9.86202e-14 0)
(-7.18811e-16 -2.039e-13 0)
(-1.03774e-13 -2.76544e-13 0)
(-5.73899e-14 -2.18224e-13 0)
(-4.85255e-15 -1.80391e-13 0)
(1.80673e-14 -1.90325e-13 0)
(2.34894e-14 -1.2612e-13 0)
(-1.9938e-14 -1.39868e-13 0)
(1.62073e-14 -1.19335e-13 0)
(5.34032e-14 -1.70221e-13 0)
(3.18572e-14 -1.49015e-13 0)
(6.2526e-14 -4.53316e-14 0)
(2.11512e-14 -3.34452e-14 0)
(-1.89275e-14 -9.84745e-14 0)
(-4.33467e-14 -7.97288e-14 0)
(6.16672e-14 -8.99577e-14 0)
(2.09033e-14 -6.75558e-14 0)
(-2.03421e-14 -1.1552e-13 0)
(6.66525e-14 -2.68128e-13 0)
(1.09213e-14 -1.9866e-13 0)
(-2.50094e-14 -1.81318e-13 0)
(-7.32378e-14 -9.50081e-14 0)
(-4.39098e-14 -1.47352e-13 0)
(2.34693e-14 -1.47998e-13 0)
(2.08523e-14 -1.12071e-13 0)
(4.92816e-14 -1.61721e-13 0)
(4.8833e-14 -2.50016e-13 0)
(-6.61129e-14 -1.85842e-13 0)
(-1.48167e-13 -1.83886e-13 0)
(-1.17485e-13 -1.6268e-13 0)
(-4.98489e-14 -9.89071e-14 0)
(7.44826e-14 -1.49172e-13 0)
(1.35407e-13 -1.81293e-13 0)
(5.49465e-14 -2.43383e-13 0)
(-9.78447e-15 -2.03431e-13 0)
(2.90314e-14 -2.65458e-13 0)
(1.08361e-13 -1.82184e-13 0)
(1.17153e-13 -2.18745e-13 0)
(3.38868e-16 -1.4085e-13 0)
(-8.96793e-14 -1.6378e-13 0)
(-8.09388e-14 -1.28815e-13 0)
(-3.57202e-14 -1.45413e-13 0)
(-3.397e-14 -1.49422e-13 0)
(-7.83436e-15 -1.74765e-13 0)
(-1.45787e-14 -7.42595e-14 0)
(-1.32819e-14 -6.51749e-14 0)
(-8.88173e-16 -9.72217e-14 0)
(5.42087e-14 -1.60053e-13 0)
(9.7359e-14 -1.61569e-13 0)
(2.05458e-14 -1.42977e-13 0)
(-4.19541e-14 -2.00085e-13 0)
(-5.45944e-14 -2.56365e-13 0)
(-6.51289e-14 -1.42166e-13 0)
(-1.03515e-13 -1.55963e-13 0)
(-4.29345e-14 -7.34464e-14 0)
(6.48687e-14 -8.77103e-14 0)
(1.62033e-13 -8.15162e-14 0)
(3.99054e-14 -7.92059e-14 0)
(-4.43856e-14 -9.83431e-14 0)
(1.22811e-14 -6.44251e-14 0)
(7.86726e-14 -5.37484e-14 0)
(1.33269e-13 3.08701e-14 0)
(5.84147e-14 -2.84754e-14 0)
(1.10697e-15 -4.04414e-14 0)
(-1.06278e-13 -4.01863e-14 0)
(-1.51869e-13 2.42699e-14 0)
(-9.60342e-14 -2.75558e-14 0)
(-1.11958e-13 -1.28142e-13 0)
(-9.80277e-14 -2.56568e-13 0)
(-4.92962e-14 -1.96472e-13 0)
(-2.48969e-14 -1.96849e-13 0)
(1.08392e-13 -2.05642e-13 0)
(1.87592e-13 -1.91645e-13 0)
(1.41847e-13 -2.01675e-13 0)
(7.52942e-14 -1.91303e-13 0)
(5.37365e-14 -1.85303e-13 0)
(9.41858e-14 -2.37385e-13 0)
(-9.50512e-17 -1.35138e-13 0)
(-6.81931e-14 -8.74808e-14 0)
(-1.66485e-14 -1.38233e-13 0)
(6.2914e-14 -1.20988e-13 0)
(9.87281e-14 -4.17389e-14 0)
(1.45595e-13 -5.13735e-14 0)
(1.21163e-13 -3.93722e-14 0)
(-6.8621e-14 -6.89549e-14 0)
(-1.66913e-13 -9.05759e-14 0)
(-1.21341e-13 2.29499e-15 0)
(-8.14067e-14 -3.14789e-14 0)
(-5.5436e-14 -8.31178e-15 0)
(-3.73113e-14 -2.77609e-14 0)
(-2.35534e-14 -1.13834e-13 0)
(2.10834e-14 -5.77128e-14 0)
(3.7958e-14 -1.25927e-13 0)
(3.31427e-14 -2.03748e-13 0)
(2.20086e-14 -1.38527e-13 0)
(-3.40265e-14 -1.34809e-13 0)
(-3.8005e-14 -1.47485e-13 0)
(8.58442e-15 -1.743e-13 0)
(-5.88516e-15 -2.02676e-13 0)
(7.85559e-15 -1.98639e-13 0)
(7.32976e-15 -2.03342e-13 0)
(-6.98326e-14 -2.67695e-13 0)
(-1.4835e-13 -1.69421e-13 0)
(-8.65807e-14 -1.25956e-13 0)
(-3.86465e-14 -2.12242e-13 0)
(1.75741e-15 -2.02523e-13 0)
(-3.59862e-14 -1.45975e-13 0)
(-1.33283e-13 -1.16294e-13 0)
(-9.98351e-14 -1.7495e-13 0)
(-1.49733e-14 -1.14298e-13 0)
(1.16044e-14 -1.44896e-14 0)
(1.18284e-13 2.45539e-14 0)
(1.34858e-13 -4.77782e-14 0)
(4.84548e-14 -9.1652e-14 0)
(1.22028e-14 -1.44598e-13 0)
(1.49151e-14 -1.51438e-13 0)
(-8.16194e-15 -9.78461e-14 0)
(-6.52051e-14 -1.07402e-13 0)
(-8.51252e-14 -2.47301e-13 0)
(-5.67697e-14 -2.15723e-13 0)
(1.4088e-15 -1.38435e-13 0)
(1.24741e-13 -1.95567e-13 0)
(1.95612e-13 -2.48083e-13 0)
(8.82433e-14 -2.92225e-13 0)
(2.27537e-14 -2.31028e-13 0)
(2.18903e-14 -2.32987e-13 0)
(7.12232e-15 -3.06288e-13 0)
(-5.13371e-14 -2.4094e-13 0)
(-6.84174e-14 -1.73306e-13 0)
(-3.20445e-14 -2.38057e-13 0)
(2.99936e-14 -2.65092e-13 0)
(2.53173e-14 -2.08947e-13 0)
(-5.1926e-16 -1.56642e-13 0)
(-3.91583e-14 -1.83258e-13 0)
(-6.09557e-14 -2.65997e-13 0)
(-1.08789e-13 -3.52295e-13 0)
(-5.58742e-14 -2.82316e-13 0)
(3.64287e-14 -3.36269e-13 0)
(-1.55508e-14 -2.52099e-13 0)
(-8.69288e-14 -2.05813e-13 0)
(-5.98049e-14 -2.20028e-13 0)
(-1.52655e-14 -2.42279e-13 0)
(-2.0982e-14 -2.7987e-13 0)
(1.89375e-14 -3.01562e-13 0)
(5.45078e-14 -4.05087e-13 0)
(3.79141e-14 -3.7976e-13 0)
(-5.79186e-14 -4.02071e-13 0)
(-1.37654e-13 -4.13702e-13 0)
(-9.45432e-14 -4.1572e-13 0)
(3.02678e-14 -2.85521e-13 0)
(7.57443e-14 -2.92129e-13 0)
(4.07323e-14 -3.1925e-13 0)
(2.36393e-14 -3.82687e-13 0)
(5.75838e-14 -3.79734e-13 0)
(8.59225e-15 -3.89547e-13 0)
(-1.40335e-13 -4.32822e-13 0)
(-1.7258e-13 -3.84597e-13 0)
(-2.05938e-15 -3.50326e-13 0)
(3.2677e-14 -3.04102e-13 0)
(-1.70338e-14 -3.71014e-13 0)
(-7.70185e-15 -3.93158e-13 0)
(-5.65397e-15 -3.65216e-13 0)
(1.45882e-14 -4.57954e-13 0)
(5.49171e-14 -3.88547e-13 0)
(3.54612e-14 -2.19178e-13 0)
(1.17181e-14 -1.16092e-13 0)
(4.2858e-14 -1.13298e-13 0)
(-2.44599e-14 -1.47978e-13 0)
(-1.29355e-13 -2.29261e-13 0)
(-1.45788e-13 -2.23265e-13 0)
(2.24849e-14 -1.38032e-13 0)
(2.19465e-14 -5.55189e-14 0)
(3.19854e-14 -6.47123e-14 0)
(3.69701e-14 -2.37681e-14 0)
(2.4872e-14 -6.205e-14 0)
(5.36306e-14 3.47264e-14 0)
(1.85428e-14 -6.75982e-14 0)
(7.04587e-14 -7.72974e-14 0)
(1.13515e-13 -2.85726e-14 0)
(-4.96495e-14 -1.15065e-15 0)
(-8.91271e-14 -5.72709e-14 0)
(-9.74998e-15 -6.1226e-14 0)
(6.8673e-14 -3.07716e-14 0)
(3.11838e-14 -9.69903e-14 0)
(-1.19912e-14 -4.31619e-14 0)
(3.41383e-14 -9.91684e-14 0)
(1.36223e-15 -1.07428e-13 0)
(-1.02876e-14 -1.49107e-13 0)
(-6.08335e-14 -1.4401e-13 0)
(-6.956e-14 -8.87262e-14 0)
(4.57957e-14 -7.97002e-14 0)
(7.33612e-14 -1.02027e-14 0)
(-1.22578e-14 -7.11653e-14 0)
(-2.89725e-14 -1.65395e-13 0)
(-3.00556e-14 -1.90343e-13 0)
(-3.78021e-14 -1.20477e-13 0)
(-5.94239e-14 -6.71606e-15 0)
(-1.91116e-14 -3.68418e-14 0)
(5.13333e-14 2.02821e-14 0)
(4.69191e-14 -5.90417e-14 0)
(-1.5231e-14 -6.36952e-14 0)
(2.1598e-14 -1.2417e-13 0)
(9.82179e-14 -1.41942e-13 0)
(9.29625e-14 -1.1745e-13 0)
(5.41555e-14 -2.39636e-13 0)
(-3.1462e-14 -2.32866e-13 0)
(-1.55954e-14 -2.26801e-13 0)
(-1.01852e-14 -1.07382e-13 0)
(-6.46981e-14 -9.03014e-14 0)
(-1.86601e-14 -8.71686e-15 0)
(4.80228e-14 -5.54667e-14 0)
(5.63447e-14 -2.31731e-14 0)
(-3.94571e-14 -5.1833e-15 0)
(-5.92557e-14 -1.21523e-13 0)
(2.95889e-15 -1.18385e-13 0)
(7.93775e-14 -1.04952e-13 0)
(-1.58763e-14 -6.77598e-14 0)
(-8.29858e-14 -1.10332e-13 0)
(-6.32276e-16 -1.29073e-13 0)
(-9.92455e-15 -1.25588e-13 0)
(-4.56882e-14 -5.68565e-14 0)
(1.75167e-15 2.56054e-14 0)
(5.71537e-14 -1.56653e-14 0)
(1.30982e-13 1.57504e-14 0)
(6.63711e-14 3.14528e-14 0)
(2.48081e-14 1.24175e-13 0)
(4.81222e-14 4.68406e-14 0)
(1.66502e-13 4.12523e-14 0)
(1.09674e-13 -4.30175e-15 0)
(1.70447e-14 6.85926e-15 0)
(-4.76291e-14 -2.16471e-14 0)
(-7.48453e-14 -6.92839e-14 0)
(-9.05022e-14 3.25671e-14 0)
(-1.75405e-13 3.27818e-14 0)
(-1.56219e-13 -7.16667e-14 0)
(-8.04372e-14 -8.76181e-14 0)
(-6.00001e-14 1.48017e-15 0)
(-7.03292e-14 -3.91263e-14 0)
(3.16808e-14 -7.59521e-14 0)
(1.46199e-13 -1.10552e-13 0)
(1.78407e-13 -4.6876e-14 0)
(1.18144e-13 -4.50874e-14 0)
(3.36238e-14 -1.17539e-13 0)
(7.1266e-14 -1.65822e-13 0)
(8.72612e-14 -1.17078e-13 0)
(-3.18073e-14 -7.3e-14 0)
(-5.27675e-15 3.15491e-17 0)
(9.75119e-14 -3.21009e-14 0)
(1.10443e-13 5.56975e-14 0)
(1.42525e-13 7.27858e-14 0)
(6.76169e-14 -2.87626e-14 0)
(-1.34187e-13 -1.35372e-13 0)
(-1.19517e-13 -4.47218e-14 0)
(-6.42188e-14 7.81771e-15 0)
(-1.10853e-13 1.68214e-14 0)
(-5.94549e-14 3.46586e-16 0)
(-6.49668e-14 -6.99811e-14 0)
(-4.47809e-15 -3.03455e-14 0)
(-2.71826e-14 -5.62431e-14 0)
(-1.69568e-14 -1.47487e-13 0)
(8.67445e-14 -1.67265e-13 0)
(3.85996e-14 -1.14316e-13 0)
(-7.01445e-14 -1.09039e-13 0)
(-4.32909e-14 -7.83387e-14 0)
(-4.12542e-14 -9.70658e-14 0)
(1.64319e-14 -1.34881e-13 0)
(-6.21536e-14 -1.35039e-13 0)
(-7.60027e-14 -2.45577e-13 0)
(-1.80201e-14 -3.2618e-13 0)
(-4.8014e-14 -2.53154e-13 0)
(-7.73138e-14 -1.73747e-13 0)
(-6.27041e-14 -1.53081e-13 0)
(1.65478e-14 -1.20685e-13 0)
(4.8375e-14 -1.51248e-14 0)
(-7.23104e-14 1.18726e-14 0)
(-8.54189e-14 4.01836e-14 0)
(2.02828e-14 -2.76082e-14 0)
(1.0874e-13 7.53584e-14 0)
(1.32226e-13 1.28957e-13 0)
(5.65973e-14 5.29652e-14 0)
(-3.69682e-14 -3.92507e-14 0)
(-7.48865e-16 -5.7269e-14 0)
(3.91288e-14 -7.1196e-15 0)
(-3.77012e-14 -4.25441e-14 0)
(-1.00482e-13 -1.58703e-13 0)
(-4.4441e-14 -1.14484e-13 0)
(-2.366e-14 -5.37332e-14 0)
(-3.45102e-14 6.8043e-15 0)
(7.43456e-14 -1.06049e-13 0)
(1.20992e-13 -1.88474e-13 0)
(6.29489e-14 -2.11929e-13 0)
(8.45569e-14 -2.4277e-13 0)
(2.19825e-14 -1.59456e-13 0)
(4.62162e-14 -2.35548e-13 0)
(-1.50952e-15 -1.44773e-13 0)
(-1.03283e-13 -1.84648e-13 0)
(-5.35988e-14 -1.55119e-13 0)
(3.81696e-14 -2.01376e-13 0)
(7.2882e-14 -2.35864e-13 0)
(4.16513e-14 -1.45628e-13 0)
(-9.2087e-14 -9.10146e-14 0)
(-1.41266e-13 -1.49558e-13 0)
(-3.91261e-14 -1.35565e-13 0)
(-5.53533e-14 -1.01502e-13 0)
(-1.32008e-14 -2.13279e-13 0)
(2.3896e-14 -2.30444e-13 0)
(-9.59708e-14 -2.56756e-13 0)
(-9.44655e-14 -2.39244e-13 0)
(-7.1738e-14 -2.85185e-13 0)
(-7.26054e-14 -3.15499e-13 0)
(-4.77136e-15 -3.1585e-13 0)
(7.82731e-14 -3.25957e-13 0)
(2.49803e-14 -3.43196e-13 0)
(-4.81334e-14 -3.80303e-13 0)
(-6.57873e-14 -3.25094e-13 0)
(-7.47775e-14 -2.34203e-13 0)
(-3.24809e-14 -2.38146e-13 0)
(9.19036e-14 -2.79298e-13 0)
(2.5504e-14 -3.16998e-13 0)
(-2.862e-14 -3.46612e-13 0)
(8.21645e-14 -3.5514e-13 0)
(2.54264e-14 -4.09987e-13 0)
(-9.58963e-14 -3.70813e-13 0)
(-7.29967e-14 -3.16004e-13 0)
(6.65918e-15 -3.00192e-13 0)
(-4.15662e-14 -3.39842e-13 0)
(-6.08018e-14 -3.99678e-13 0)
(2.45451e-14 -3.98616e-13 0)
(2.12226e-14 -3.27784e-13 0)
(7.41674e-14 -3.1692e-13 0)
(1.39532e-13 -3.45808e-13 0)
(1.45896e-13 -2.92084e-13 0)
(3.06012e-14 -2.74501e-13 0)
(2.14403e-14 -2.46621e-13 0)
(-7.72627e-14 -2.58171e-13 0)
(-1.05086e-13 -2.22506e-13 0)
(-2.40661e-14 -1.64855e-13 0)
(9.11827e-14 -3.51256e-14 0)
(7.13597e-14 -5.48001e-14 0)
(1.15285e-13 3.12756e-14 0)
(5.42443e-14 1.19904e-13 0)
(3.86614e-14 1.5689e-13 0)
(3.85619e-14 1.78267e-13 0)
(-8.16249e-14 1.17406e-13 0)
(5.30369e-14 6.15962e-14 0)
(1.19102e-13 -7.13566e-14 0)
(-2.69308e-14 -9.75792e-14 0)
(-7.95942e-14 -4.44795e-14 0)
(-3.57603e-15 -7.94222e-14 0)
(5.30415e-14 -6.77689e-14 0)
(5.92449e-14 -4.31637e-14 0)
(-5.16096e-14 -2.04309e-14 0)
(-1.57739e-14 2.68864e-14 0)
(-2.02821e-14 4.64572e-15 0)
(-5.59321e-14 1.46789e-14 0)
(-2.87743e-14 -1.65955e-14 0)
(3.50901e-14 2.05859e-14 0)
(1.09752e-13 8.1137e-14 0)
(4.72246e-14 8.73284e-15 0)
(-9.52715e-14 -1.77466e-14 0)
(-4.54566e-14 7.32624e-15 0)
(-8.53092e-15 2.00005e-14 0)
(1.91805e-14 1.21923e-13 0)
(1.35529e-15 1.50967e-13 0)
(-6.36925e-15 9.51177e-14 0)
(3.68093e-14 7.04279e-14 0)
(-8.95848e-15 6.2261e-14 0)
(-4.56636e-14 4.90639e-14 0)
(-7.90547e-14 6.32596e-15 0)
(4.93225e-14 -1.1941e-14 0)
(5.08251e-14 -7.75974e-14 0)
(-8.48788e-15 -1.46183e-13 0)
(2.37218e-14 -1.27753e-13 0)
(2.80502e-14 -6.19584e-14 0)
(3.45142e-14 -8.3624e-14 0)
(1.18568e-14 3.32935e-14 0)
(-4.35997e-14 4.77935e-14 0)
(-1.31513e-14 -6.05396e-15 0)
(4.73336e-14 -2.98627e-14 0)
(-1.15168e-13 -8.89735e-14 0)
(-5.79876e-14 -8.91543e-14 0)
(6.75588e-14 -6.34433e-14 0)
(1.15893e-13 -4.63402e-14 0)
(1.00264e-14 -2.71817e-14 0)
(-1.02112e-13 -2.36719e-14 0)
(-7.29032e-14 1.93133e-14 0)
(-1.85288e-14 -1.11391e-14 0)
(5.49568e-14 -6.09256e-15 0)
(8.81485e-14 4.22539e-14 0)
(4.10922e-14 4.56559e-14 0)
(1.44112e-13 1.33827e-14 0)
(1.60883e-13 3.11809e-14 0)
(1.21084e-14 9.19323e-14 0)
(-7.69317e-14 1.16302e-13 0)
(6.56119e-14 7.78827e-14 0)
(1.43646e-13 2.75189e-14 0)
(5.62665e-14 -3.14301e-14 0)
(-6.75524e-14 -2.50087e-14 0)
(-6.65578e-14 -4.63828e-14 0)
(-5.8435e-14 -4.45886e-14 0)
(-1.86945e-13 2.39922e-14 0)
(-2.14378e-13 -8.7468e-16 0)
(-2.98995e-14 1.98354e-14 0)
(-4.63879e-14 4.53654e-14 0)
(-9.67071e-14 1.19443e-13 0)
(2.57631e-14 5.83515e-14 0)
(1.82363e-13 7.83008e-14 0)
(1.80956e-13 -5.9443e-14 0)
(6.18305e-14 -1.09876e-13 0)
(-2.78501e-14 -9.47264e-14 0)
(5.97795e-14 -5.72086e-14 0)
(1.07055e-13 -5.85943e-14 0)
(5.17673e-14 -5.1158e-14 0)
(2.8285e-14 6.1839e-14 0)
(7.64604e-14 9.97801e-14 0)
(1.93685e-13 6.57495e-14 0)
(4.88057e-14 1.13882e-14 0)
(-5.30311e-14 -1.01811e-13 0)
(-1.20867e-13 -1.23745e-13 0)
(-5.49241e-14 -1.47596e-14 0)
(-1.31877e-14 -1.29037e-14 0)
(-1.09544e-13 7.77754e-15 0)
(-1.09909e-13 -6.49394e-14 0)
(-5.58614e-14 -6.78828e-14 0)
(8.33072e-15 -7.27202e-14 0)
(-5.60997e-14 -6.04697e-14 0)
(-7.30976e-14 -3.10222e-14 0)
(7.06211e-14 5.26289e-15 0)
(2.93713e-14 -3.7384e-14 0)
(-3.85109e-14 -4.79555e-14 0)
(-2.24188e-14 -2.1057e-14 0)
(-4.45034e-14 1.37485e-15 0)
(-8.89896e-15 -5.6164e-14 0)
(-1.14746e-13 -6.07036e-14 0)
(-1.43308e-13 -1.63668e-13 0)
(-7.40031e-14 -1.99476e-13 0)
(-1.29882e-14 -2.52276e-13 0)
(-2.98935e-14 -2.11319e-13 0)
(2.43503e-14 -1.07795e-13 0)
(9.89195e-14 -1.66187e-15 0)
(1.4154e-13 -2.03684e-14 0)
(-2.4851e-14 4.75664e-14 0)
(-8.08713e-14 1.31955e-13 0)
(1.85397e-14 1.37933e-13 0)
(1.75257e-13 7.78725e-14 0)
(8.61403e-14 6.18054e-14 0)
(-3.56249e-14 1.28192e-13 0)
(-7.97447e-14 1.06268e-13 0)
(4.11973e-14 8.45944e-14 0)
(4.91618e-14 2.91092e-14 0)
(-1.04312e-13 1.04486e-14 0)
(-1.25667e-13 2.9061e-15 0)
(-4.55537e-14 -5.93309e-16 0)
(2.43483e-14 -8.19297e-14 0)
(-2.00596e-14 -6.32305e-15 0)
(-3.61799e-14 -4.52564e-14 0)
(7.5921e-14 -1.0317e-13 0)
(1.64035e-14 -9.18882e-14 0)
(4.7714e-14 -1.50403e-13 0)
(7.14171e-15 -2.01049e-13 0)
(1.33855e-14 -2.50809e-13 0)
(3.02441e-15 -3.01826e-13 0)
(-6.6559e-14 -2.25107e-13 0)
(-2.16968e-14 -1.46037e-13 0)
(-1.56717e-14 -1.89039e-13 0)
(4.78558e-14 -2.00664e-13 0)
(9.01008e-14 -1.5621e-13 0)
(-4.59985e-14 -1.59668e-13 0)
(-9.47632e-14 -3.87228e-14 0)
(-6.16389e-14 -6.96002e-14 0)
(-8.41039e-14 -9.7048e-14 0)
(-9.05794e-14 -8.27267e-14 0)
(-6.25545e-14 -1.95977e-13 0)
(-9.22709e-14 -2.26228e-13 0)
(-7.44169e-14 -2.71353e-13 0)
(-8.73466e-14 -2.32601e-13 0)
(-5.52019e-14 -2.52471e-13 0)
(1.65447e-14 -1.92967e-13 0)
(2.03407e-14 -1.69559e-13 0)
(-3.5508e-15 -2.02462e-13 0)
(-2.51792e-14 -2.04595e-13 0)
(9.08823e-15 -1.30233e-13 0)
(3.29291e-14 -1.16744e-13 0)
(-1.61124e-15 -3.03843e-14 0)
(2.93651e-14 -6.25761e-14 0)
(7.40791e-15 -1.738e-13 0)
(-4.14437e-14 -1.95318e-13 0)
(1.40383e-14 -2.46717e-13 0)
(-2.97867e-14 -2.45136e-13 0)
(-6.05212e-14 -2.88881e-13 0)
(-7.05771e-14 -2.61551e-13 0)
(-1.76374e-14 -3.07088e-13 0)
(-1.03484e-14 -3.89531e-13 0)
(-4.96817e-14 -3.23567e-13 0)
(3.1114e-14 -2.8218e-13 0)
(6.44571e-14 -1.80178e-13 0)
(6.13521e-14 -1.1632e-13 0)
(8.02274e-14 -1.45826e-13 0)
(6.17385e-14 -2.14988e-13 0)
(4.6543e-14 -2.50767e-13 0)
(8.71862e-14 -2.25065e-13 0)
(6.45666e-15 -1.46005e-13 0)
(-4.13818e-14 -8.7714e-14 0)
(2.05496e-14 -6.58493e-14 0)
(4.54277e-14 5.43965e-14 0)
(9.20179e-14 -7.87732e-15 0)
(1.82733e-13 -1.46034e-14 0)
(1.03381e-13 -5.00754e-14 0)