/*--------------------------------*- C++ -*----------------------------------*\
  =========                 |
  \\      /  F ield         | OpenFOAM: The Open Source CFD Toolbox
   \\    /   O peration     | Website:  https://openfoam.org
    \\  /    A nd           | Version:  13
     \\/     M anipulation  |
\*---------------------------------------------------------------------------*/
FoamFile
{
    format      ascii;
    class       surfaceScalarField;
    location    "0.0019";
    object      phi;
}
// * * * * * * * * * * * * * * * * * * * * * * * * * * * * * * * * * * * * * //

dimensions      [1 0 -1 0 0 0 0];

internalField   nonuniform List<scalar> 
66300
(
0.811192
-6.26114e-06
0.809305
-6.47535e-06
0.807444
-6.74684e-06
0.805615
-6.89847e-06
0.803827
-6.94133e-06
0.802089
-6.91066e-06
0.800414
-6.86769e-06
0.798813
-6.80809e-06
0.797289
-6.7409e-06
0.795824
-6.71881e-06
0.794384
-6.70882e-06
0.792922
-6.69538e-06
0.791402
-6.66062e-06
0.789817
-6.59938e-06
0.788193
-6.54316e-06
0.786564
-6.49664e-06
0.784957
-6.44978e-06
0.783399
-6.40653e-06
0.781931
-6.36735e-06
0.780555
-6.36912e-06
0.779076
-6.50465e-06
0.776735
-6.71285e-06
0.770801
-6.79655e-06
0.750859
-6.67846e-06
0.679924
-6.28164e-06
0.469985
-5.24571e-06
0.145795
-2.72016e-06
0.00943806
-5.65501e-07
7.75936e-05
-2.96599e-08
5.88376e-08
-2.28655e-10
3.90143e-12
-1.20626e-13
-7.77156e-16
3.88578e-16
-1.22125e-15
1.27676e-15
-1.05471e-15
1.11022e-15
-1.22125e-15
8.32667e-16
-1.33227e-15
1.05471e-15
-3.33067e-16
8.32667e-16
-9.4369e-16
7.77156e-16
-3.88578e-16
6.10623e-16
2.77556e-16
9.4369e-16
2.22045e-16
2.22045e-16
4.996e-16
4.44089e-16
9.4369e-16
-5.55112e-17
-7.21645e-16
-2.77556e-16
-4.44089e-16
1.11022e-16
-1.11022e-16
8.32667e-16
-3.88578e-16
1.66533e-16
1.11022e-16
1.22125e-15
-1.66533e-16
2.22045e-16
-3.33067e-16
5.55112e-16
-1.11022e-16
1.11022e-16
5.55112e-17
3.33067e-16
2.22045e-16
-5.55112e-17
5.55112e-16
-3.33067e-16
-2.77556e-16
-9.4369e-16
8.32667e-16
4.44089e-16
-1.66533e-16
-4.996e-16
5.55112e-17
3.33067e-16
-1.11022e-16
-5.55112e-17
3.88578e-16
-2.77556e-16
-8.88178e-16
-5.55112e-16
-4.996e-16
5.55112e-17
-2.22045e-16
1.11022e-15
-1.05471e-15
-5.55112e-17
-2.77556e-16
5.55112e-16
-8.32667e-16
0
-1.44329e-15
1.05471e-15
-1.33227e-15
8.88178e-16
-1.38778e-15
1.27676e-15
-1.22125e-15
9.99201e-16
-8.88178e-16
1.38778e-15
-9.99201e-16
3.88578e-16
0
7.77156e-16
-5.55112e-17
2.22045e-16
-2.22045e-16
5.55112e-16
-7.77156e-16
3.33067e-16
-1.60982e-15
8.88178e-16
-9.4369e-16
9.99201e-16
-4.996e-16
1.16573e-15
-6.10623e-16
9.99201e-16
-6.10623e-16
1.33227e-15
-1.66533e-16
9.99201e-16
3.33067e-16
9.4369e-16
-2.77556e-16
4.996e-16
3.33067e-16
1.16573e-15
-2.77556e-16
1.38778e-15
1.66533e-16
1.11022e-15
2.77556e-16
1.16573e-15
5.55112e-17
4.44089e-16
2.77556e-16
1.05471e-15
5.55112e-17
2.77556e-16
5.55112e-17
9.99201e-16
1.66533e-16
8.88178e-16
1.66533e-16
9.99201e-16
2.22045e-16
4.996e-16
-3.33067e-16
1.16573e-15
-4.996e-16
9.99201e-16
-6.10623e-16
8.32667e-16
5.55112e-17
6.10623e-16
0
9.99201e-16
-1.11022e-16
6.10623e-16
0
9.4369e-16
1.66533e-16
8.88178e-16
-1.11022e-16
9.4369e-16
-1.66533e-16
8.88178e-16
1.11022e-16
8.32667e-16
3.33067e-16
5.55112e-16
-1.11022e-16
1.66533e-16
1.66533e-16
4.44089e-16
6.66134e-16
3.33067e-16
6.10623e-16
4.996e-16
7.77156e-16
5.55112e-16
1.66533e-16
1.11022e-15
3.33067e-16
8.32667e-16
1.33227e-15
7.21645e-16
1.38778e-15
4.996e-16
3.88578e-16
1.22125e-15
3.33067e-16
6.10623e-16
3.33067e-16
1.11022e-15
1.22125e-15
7.21645e-16
-9.4369e-16
2.22045e-16
-3.88578e-16
9.4369e-16
-3.33067e-16
1.55431e-15
1.11022e-16
6.66134e-16
-4.44089e-16
2.77556e-16
-4.996e-16
3.33067e-16
-5.55112e-17
1.05471e-15
-1.66533e-16
2.77556e-16
-2.77556e-16
8.32667e-16
-3.88578e-16
1.11022e-15
-1.66533e-16
1.05471e-15
5.55112e-17
6.66134e-16
-7.77156e-16
5.55112e-16
-4.44089e-16
2.77556e-16
-3.88578e-16
0
-4.996e-16
3.88578e-16
-2.22045e-16
3.88578e-16
-2.22045e-16
5.55112e-16
0
1.11022e-15
8.32667e-16
8.32667e-16
5.55112e-16
6.10623e-16
-2.22045e-16
9.99201e-16
-1.11022e-16
8.88178e-16
-1.66533e-16
1.11022e-15
5.55112e-16
1.22125e-15
3.88578e-16
1.4988e-15
5.55112e-17
1.16573e-15
-7.77156e-16
1.66533e-15
-2.22045e-16
9.4369e-16
-1.11022e-16
1.27676e-15
-1.11022e-16
8.32667e-16
-1.66533e-16
1.4988e-15
4.996e-16
9.4369e-16
-9.4369e-16
5.55112e-16
0
7.21645e-16
1.66533e-16
4.996e-16
1.11022e-16
-5.55112e-17
-1.16573e-15
1.66533e-16
-9.99201e-16
1.66533e-16
0
6.66134e-16
4.996e-16
1.05471e-15
1.05471e-15
1.11022e-15
3.88578e-16
1.66533e-15
3.33067e-16
1.88738e-15
7.77156e-16
1.4988e-15
6.66134e-16
6.66134e-16
1.11022e-15
0.811377
-5.56508e-06
0.809483
-5.87538e-06
0.807615
-6.25927e-06
0.805779
-6.52163e-06
0.803983
-6.65737e-06
0.802238
-6.49819e-06
0.800556
-6.42959e-06
0.798948
-6.33892e-06
0.797416
-6.23988e-06
0.795945
-6.28711e-06
0.794497
-6.24212e-06
0.793028
-6.21163e-06
0.7915
-6.16324e-06
0.789908
-6.08744e-06
0.788277
-6.02216e-06
0.786641
-5.97095e-06
0.785027
-5.91804e-06
0.783462
-5.86787e-06
0.781986
-5.84203e-06
0.780604
-5.89076e-06
0.779118
-6.03485e-06
0.776769
-6.16737e-06
0.770828
-6.19514e-06
0.750877
-6.09196e-06
0.679935
-5.69519e-06
0.469992
-4.25319e-06
0.145798
-2.06442e-06
0.00943832
-3.67144e-07
7.75966e-05
-1.52826e-08
5.88404e-08
-9.74805e-11
3.90227e-12
-6.45595e-14
-7.21645e-16
1.38778e-15
-1.66533e-15
8.88178e-16
-1.4988e-15
9.4369e-16
-1.11022e-15
1.60982e-15
-1.33227e-15
1.94289e-15
-6.66134e-16
1.72085e-15
-7.21645e-16
1.44329e-15
-1.11022e-16
1.33227e-15
-2.22045e-16
9.4369e-16
3.88578e-16
8.32667e-16
1.11022e-16
4.44089e-16
6.10623e-16
6.10623e-16
-5.55112e-17
2.22045e-16
-1.11022e-16
5.55112e-16
-6.66134e-16
2.22045e-16
2.22045e-16
9.4369e-16
-4.996e-16
8.88178e-16
0
9.4369e-16
-3.88578e-16
1.44329e-15
5.55112e-17
1.11022e-15
-5.55112e-17
9.99201e-16
-1.66533e-16
6.10623e-16
3.88578e-16
6.66134e-16
4.996e-16
9.4369e-16
2.77556e-16
9.99201e-16
6.66134e-16
7.77156e-16
-2.22045e-16
-5.55112e-17
-2.77556e-16
3.88578e-16
5.55112e-17
1.05471e-15
-4.996e-16
9.4369e-16
-5.55112e-17
9.4369e-16
-1.22125e-15
9.4369e-16
-7.77156e-16
1.33227e-15
-4.44089e-16
1.72085e-15
-2.77556e-16
1.27676e-15
-1.44329e-15
1.4988e-15
-1.11022e-15
1.72085e-15
-1.55431e-15
1.9984e-15
-9.99201e-16
1.60982e-15
-1.66533e-15
1.16573e-15
-9.4369e-16
1.38778e-15
-4.44089e-16
1.60982e-15
1.11022e-16
1.22125e-15
-2.22045e-16
6.10623e-16
-2.22045e-16
1.16573e-15
-1.77636e-15
1.22125e-15
-1.11022e-15
2.16493e-15
-4.996e-16
2.10942e-15
-4.996e-16
2.22045e-15
-7.21645e-16
2.22045e-15
-3.88578e-16
2.27596e-15
-2.22045e-16
2.498e-15
5.55112e-17
2.33147e-15
3.88578e-16
2.33147e-15
-6.10623e-16
1.72085e-15
-5.55112e-17
2.16493e-15
3.33067e-16
1.88738e-15
7.21645e-16
1.55431e-15
0
1.27676e-15
3.88578e-16
1.16573e-15
-2.22045e-16
1.16573e-15
2.22045e-16
1.83187e-15
-3.88578e-16
1.44329e-15
3.88578e-16
1.38778e-15
-1.11022e-16
1.16573e-15
-5.55112e-16
1.33227e-15
-8.32667e-16
1.27676e-15
5.55112e-17
1.72085e-15
0
1.88738e-15
3.33067e-16
1.83187e-15
1.66533e-16
2.10942e-15
3.33067e-16
2.10942e-15
-1.11022e-16
2.27596e-15
-1.11022e-16
2.33147e-15
-5.55112e-17
1.94289e-15
0
2.05391e-15
5.55112e-17
1.38778e-15
2.77556e-16
1.66533e-15
7.21645e-16
1.83187e-15
7.77156e-16
2.10942e-15
1.33227e-15
1.88738e-15
-1.11022e-16
1.44329e-15
2.22045e-16
1.88738e-15
1.05471e-15
1.55431e-15
1.38778e-15
1.77636e-15
3.33067e-16
1.88738e-15
5.55112e-16
1.83187e-15
1.11022e-16
1.9984e-15
4.44089e-16
1.66533e-15
1.66533e-16
1.44329e-15
5.55112e-17
1.22125e-15
-9.99201e-16
1.05471e-15
-2.77556e-16
1.16573e-15
-2.77556e-16
1.22125e-15
-5.55112e-17
1.11022e-15
-4.996e-16
1.38778e-15
0
1.22125e-15
-5.55112e-17
1.16573e-15
-1.16573e-15
7.77156e-16
-5.55112e-16
1.38778e-15
-4.44089e-16
1.05471e-15
-7.77156e-16
1.55431e-15
-3.88578e-16
1.55431e-15
0
1.16573e-15
-3.88578e-16
6.10623e-16
-3.33067e-16
8.88178e-16
3.33067e-16
1.27676e-15
-3.88578e-16
7.21645e-16
4.44089e-16
1.55431e-15
6.10623e-16
1.4988e-15
-3.33067e-16
1.88738e-15
-5.55112e-17
2.05391e-15
0
2.66454e-15
2.77556e-16
2.33147e-15
-1.66533e-16
1.9984e-15
2.77556e-16
2.27596e-15
-8.88178e-16
1.88738e-15
-1.11022e-16
1.9984e-15
-2.22045e-16
1.88738e-15
2.22045e-16
1.77636e-15
-4.996e-16
1.66533e-15
5.55112e-17
1.66533e-15
-5.55112e-16
1.27676e-15
-3.33067e-16
1.66533e-15
0
1.4988e-15
0
1.38778e-15
-7.77156e-16
8.32667e-16
-7.77156e-16
1.55431e-15
0
1.9984e-15
6.10623e-16
1.83187e-15
1.4988e-15
2.05391e-15
5.55112e-16
1.55431e-15
-4.44089e-16
9.99201e-16
1.66533e-16
1.94289e-15
7.77156e-16
2.05391e-15
2.22045e-15
0.811377
-5.24312e-06
0.809483
-5.36447e-06
0.807615
-5.62693e-06
0.805779
-5.95349e-06
0.803984
-6.13298e-06
0.802238
-6.17888e-06
0.800556
-6.1319e-06
0.798948
-6.06131e-06
0.797416
-6.01993e-06
0.795944
-5.97111e-06
0.794497
-5.92171e-06
0.793028
-5.88192e-06
0.7915
-5.82938e-06
0.789908
-5.75917e-06
0.788277
-5.7023e-06
0.786641
-5.65667e-06
0.785026
-5.61166e-06
0.783461
-5.58087e-06
0.781986
-5.59249e-06
0.780603
-5.66694e-06
0.779117
-5.75544e-06
0.776768
-5.81554e-06
0.770827
-5.80811e-06
0.750877
-5.6795e-06
0.679935
-5.29079e-06
0.469993
-3.99817e-06
0.145799
-1.89661e-06
0.00943856
-3.3507e-07
7.75998e-05
-1.36167e-08
5.8844e-08
-8.14268e-11
3.90182e-12
-4.79061e-14
-9.4369e-16
1.55431e-15
-1.27676e-15
1.4988e-15
-9.99201e-16
1.66533e-15
-4.996e-16
2.27596e-15
-1.55431e-15
2.22045e-15
-9.99201e-16
2.22045e-15
-9.99201e-16
1.60982e-15
-4.44089e-16
1.83187e-15
-3.33067e-16
2.38698e-15
2.22045e-16
1.77636e-15
4.44089e-16
1.66533e-15
4.44089e-16
1.94289e-15
1.11022e-16
2.16493e-15
-3.33067e-16
1.66533e-15
-1.66533e-16
1.66533e-15
2.22045e-16
2.10942e-15
-1.66533e-16
1.38778e-15
8.32667e-16
1.77636e-15
-7.21645e-16
1.4988e-15
-2.22045e-16
1.88738e-15
0
2.38698e-15
1.11022e-16
1.94289e-15
6.10623e-16
1.83187e-15
6.10623e-16
2.27596e-15
1.66533e-16
1.60982e-15
-2.77556e-16
1.27676e-15
-5.55112e-17
1.38778e-15
3.33067e-16
1.72085e-15
1.66533e-16
1.83187e-15
-7.77156e-16
1.66533e-15
-2.22045e-16
1.66533e-15
-7.21645e-16
1.05471e-15
-6.10623e-16
2.38698e-15
-5.55112e-16
2.60902e-15
0
2.55351e-15
-1.11022e-15
1.60982e-15
-5.55112e-16
2.16493e-15
-2.05391e-15
1.94289e-15
-1.44329e-15
2.05391e-15
-1.55431e-15
1.38778e-15
-7.77156e-16
1.94289e-15
-4.44089e-16
2.66454e-15
-1.66533e-16
2.22045e-15
-5.55112e-17
2.22045e-15
-2.77556e-16
2.33147e-15
-6.10623e-16
2.72005e-15
-8.32667e-16
2.55351e-15
-3.88578e-16
2.44249e-15
-3.33067e-16
2.83107e-15
-8.32667e-16
2.22045e-15
-1.11022e-16
3.10862e-15
-3.88578e-16
2.83107e-15
5.55112e-17
3.21965e-15
-2.22045e-16
2.9976e-15
-1.11022e-16
2.60902e-15
-5.55112e-17
2.33147e-15
-2.22045e-16
1.88738e-15
2.22045e-16
2.44249e-15
5.55112e-17
2.77556e-15
2.77556e-16
2.72005e-15
3.88578e-16
2.33147e-15
5.55112e-17
2.33147e-15
-4.44089e-16
2.55351e-15
1.11022e-16
2.05391e-15
-1.11022e-16
1.44329e-15
-8.32667e-16
2.22045e-15
-3.33067e-16
2.55351e-15
3.88578e-16
2.55351e-15
-5.55112e-17
2.60902e-15
4.996e-16
2.9976e-15
2.22045e-16
2.88658e-15
6.10623e-16
2.83107e-15
1.11022e-16
2.498e-15
-7.77156e-16
2.22045e-15
3.88578e-16
2.16493e-15
-4.996e-16
1.88738e-15
2.22045e-16
2.33147e-15
5.55112e-16
3.10862e-15
7.21645e-16
2.94209e-15
3.88578e-16
3.05311e-15
4.996e-16
2.83107e-15
5.55112e-17
2.27596e-15
2.77556e-16
2.22045e-15
9.4369e-16
2.27596e-15
1.60982e-15
2.55351e-15
4.44089e-16
1.38778e-15
4.44089e-16
2.05391e-15
-5.55112e-16
1.77636e-15
6.10623e-16
1.72085e-15
-2.22045e-16
7.77156e-16
-5.55112e-17
1.33227e-15
-8.88178e-16
8.88178e-16
-1.11022e-16
1.55431e-15
-3.33067e-16
1.16573e-15
2.22045e-16
1.88738e-15
-7.77156e-16
1.9984e-15
-1.66533e-16
2.38698e-15
-1.66533e-16
2.16493e-15
-4.996e-16
1.94289e-15
-4.996e-16
1.38778e-15
5.55112e-17
1.55431e-15
-1.05471e-15
1.16573e-15
-9.4369e-16
2.05391e-15
-6.10623e-16
2.33147e-15
-2.22045e-16
2.10942e-15
-1.66533e-16
2.38698e-15
1.11022e-16
2.22045e-15
5.55112e-17
2.16493e-15
7.21645e-16
2.55351e-15
1.27676e-15
2.498e-15
5.55112e-17
2.05391e-15
6.66134e-16
2.66454e-15
5.55112e-17
2.72005e-15
4.996e-16
3.10862e-15
2.22045e-16
2.60902e-15
-2.77556e-16
2.16493e-15
-8.88178e-16
1.94289e-15
-3.88578e-16
2.10942e-15
-3.33067e-16
1.60982e-15
2.77556e-16
2.38698e-15
-6.66134e-16
2.10942e-15
-5.55112e-17
2.33147e-15
-4.44089e-16
2.33147e-15
-3.33067e-16
2.83107e-15
1.66533e-16
2.60902e-15
-2.77556e-16
2.88658e-15
0
2.22045e-15
-1.11022e-16
2.83107e-15
0
3.44169e-15
4.996e-16
2.94209e-15
1.22125e-15
2.60902e-15
5.55112e-17
1.83187e-15
4.996e-16
1.9984e-15
2.77556e-16
2.22045e-15
1.11022e-15
2.498e-15
2.60902e-15
0.811376
-6.35351e-06
0.809482
-5.13911e-06
0.807614
-5.13948e-06
0.805778
-5.41951e-06
0.803983
-5.70066e-06
0.802238
-5.88066e-06
0.800556
-5.93139e-06
0.798948
-5.90296e-06
0.797416
-5.85917e-06
0.795944
-5.80272e-06
0.794497
-5.75169e-06
0.793027
-5.7072e-06
0.7915
-5.65637e-06
0.789907
-5.59962e-06
0.788276
-5.55295e-06
0.78664
-5.51216e-06
0.785026
-5.48009e-06
0.783461
-5.47283e-06
0.781985
-5.49126e-06
0.780603
-5.5379e-06
0.779116
-5.57643e-06
0.776767
-5.58921e-06
0.770826
-5.55211e-06
0.750876
-5.44738e-06
0.679936
-5.12577e-06
0.469995
-3.99643e-06
0.145801
-1.9183e-06
0.0094388
-3.4116e-07
7.7603e-05
-1.39255e-08
5.88475e-08
-8.31853e-11
3.90149e-12
-4.70735e-14
-8.88178e-16
1.9984e-15
-1.16573e-15
1.4988e-15
-5.55112e-16
2.38698e-15
-5.55112e-17
2.498e-15
-1.66533e-15
1.9984e-15
-1.33227e-15
2.38698e-15
-4.996e-16
2.05391e-15
2.22045e-16
2.22045e-15
-9.4369e-16
1.83187e-15
-2.22045e-16
2.27596e-15
4.44089e-16
2.83107e-15
1.16573e-15
2.72005e-15
-5.55112e-16
1.9984e-15
-3.33067e-16
2.22045e-15
2.22045e-16
2.33147e-15
-5.55112e-16
1.94289e-15
-1.11022e-16
2.55351e-15
8.32667e-16
2.10942e-15
-4.996e-16
1.44329e-15
4.44089e-16
2.05391e-15
-3.88578e-16
1.88738e-15
1.11022e-16
2.33147e-15
7.21645e-16
2.22045e-15
-5.55112e-17
2.05391e-15
0
2.44249e-15
0
2.27596e-15
5.55112e-17
2.38698e-15
3.88578e-16
2.10942e-15
1.66533e-16
1.77636e-15
-9.99201e-16
1.72085e-15
-3.33067e-16
2.38698e-15
3.88578e-16
2.05391e-15
-1.11022e-16
2.16493e-15
-8.88178e-16
1.88738e-15
-1.16573e-15
2.05391e-15
-7.77156e-16
2.94209e-15
-3.88578e-16
2.498e-15
-2.10942e-15
1.94289e-15
-1.60982e-15
2.38698e-15
-9.4369e-16
2.22045e-15
0
2.33147e-15
-9.99201e-16
1.94289e-15
-5.55112e-16
2.33147e-15
5.55112e-17
3.05311e-15
3.33067e-16
2.66454e-15
-8.32667e-16
2.55351e-15
-6.10623e-16
2.83107e-15
-1.11022e-16
2.66454e-15
-8.32667e-16
3.10862e-15
-2.22045e-16
3.05311e-15
-2.77556e-16
3.55271e-15
-5.55112e-17
2.88658e-15
-3.33067e-16
3.16414e-15
-4.44089e-16
3.4972e-15
-3.33067e-16
3.77476e-15
-3.33067e-16
3.60822e-15
4.996e-16
2.498e-15
6.10623e-16
2.38698e-15
-2.22045e-16
2.10942e-15
-2.22045e-16
2.77556e-15
3.88578e-16
3.10862e-15
3.88578e-16
2.55351e-15
-9.99201e-16
2.38698e-15
-3.33067e-16
2.10942e-15
1.66533e-16
2.60902e-15
-3.33067e-16
2.498e-15
-2.22045e-16
2.77556e-15
8.32667e-16
2.94209e-15
3.88578e-16
1.66533e-15
6.10623e-16
2.05391e-15
2.77556e-16
1.60982e-15
3.33067e-16
2.05391e-15
-3.33067e-16
2.16493e-15
-8.88178e-16
1.88738e-15
-2.77556e-16
2.10942e-15
-1.66533e-16
2.27596e-15
1.05471e-15
2.38698e-15
6.10623e-16
2.60902e-15
9.4369e-16
2.83107e-15
1.11022e-16
2.72005e-15
1.66533e-16
2.60902e-15
1.66533e-16
2.55351e-15
1.11022e-16
2.22045e-15
9.99201e-16
2.55351e-15
1.05471e-15
2.9976e-15
6.10623e-16
2.498e-15
6.66134e-16
2.10942e-15
-6.66134e-16
1.66533e-15
-3.33067e-16
1.33227e-15
1.66533e-16
1.38778e-15
-3.88578e-16
9.4369e-16
-3.33067e-16
1.88738e-15
-2.77556e-16
1.9984e-15
4.996e-16
1.94289e-15
7.77156e-16
1.9984e-15
-4.996e-16
1.60982e-15
-3.33067e-16
2.44249e-15
-2.22045e-16
3.05311e-15
-8.32667e-16
2.77556e-15
-2.77556e-16
2.33147e-15
-5.55112e-16
2.27596e-15
-3.88578e-16
1.9984e-15
-5.55112e-16
2.16493e-15
-6.66134e-16
2.88658e-15
-5.55112e-17
3.44169e-15
-1.11022e-16
3.38618e-15
2.22045e-16
3.60822e-15
5.55112e-16
2.9976e-15
3.33067e-16
2.22045e-15
7.77156e-16
2.72005e-15
5.55112e-16
2.60902e-15
9.4369e-16
2.88658e-15
2.22045e-16
2.27596e-15
5.55112e-17
1.94289e-15
-6.10623e-16
1.72085e-15
-3.33067e-16
1.55431e-15
-9.99201e-16
2.22045e-15
-6.66134e-16
2.55351e-15
2.77556e-16
2.16493e-15
4.44089e-16
2.27596e-15
-4.996e-16
1.4988e-15
-1.11022e-16
2.05391e-15
-5.55112e-17
3.05311e-15
-2.77556e-16
3.16414e-15
2.22045e-16
2.60902e-15
-6.66134e-16
2.9976e-15
2.22045e-16
2.88658e-15
3.88578e-16
2.94209e-15
-6.10623e-16
2.66454e-15
5.55112e-17
3.44169e-15
7.77156e-16
2.94209e-15
0
2.44249e-15
9.4369e-16
2.94209e-15
2.22045e-16
1.88738e-15
1.16573e-15
2.55351e-15
2.55351e-15
0.811378
-9.96731e-06
0.809481
-6.25147e-06
0.807613
-5.06319e-06
0.805778
-5.13866e-06
0.803983
-5.25526e-06
0.802238
-5.52617e-06
0.800555
-5.70118e-06
0.798947
-5.77571e-06
0.797415
-5.78229e-06
0.795944
-5.7362e-06
0.794496
-5.67902e-06
0.793027
-5.62709e-06
0.7915
-5.5748e-06
0.789907
-5.52416e-06
0.788276
-5.48108e-06
0.78664
-5.44687e-06
0.785025
-5.42679e-06
0.783461
-5.42249e-06
0.781985
-5.42669e-06
0.780602
-5.43926e-06
0.779116
-5.45401e-06
0.776767
-5.45722e-06
0.770826
-5.45382e-06
0.750876
-5.38954e-06
0.679937
-5.04819e-06
0.469997
-3.98597e-06
0.145803
-1.91891e-06
0.00943905
-3.41111e-07
7.76063e-05
-1.39238e-08
5.8851e-08
-8.33777e-11
3.90221e-12
-4.70735e-14
-7.77156e-16
1.88738e-15
-6.66134e-16
2.44249e-15
-1.66533e-16
2.94209e-15
-3.88578e-16
1.77636e-15
-1.44329e-15
1.38778e-15
-1.83187e-15
1.66533e-15
-6.10623e-16
2.60902e-15
-5.55112e-16
2.16493e-15
-4.996e-16
2.33147e-15
9.4369e-16
2.22045e-15
3.33067e-16
1.44329e-15
4.996e-16
1.16573e-15
-2.77556e-16
1.22125e-15
-6.66134e-16
1.16573e-15
0
2.05391e-15
0
2.10942e-15
-2.77556e-16
1.9984e-15
3.33067e-16
1.38778e-15
-1.11022e-16
1.11022e-15
2.77556e-16
9.99201e-16
-1.66533e-16
1.05471e-15
-2.77556e-16
1.33227e-15
5.55112e-16
2.05391e-15
4.44089e-16
2.27596e-15
-3.33067e-16
2.44249e-15
-3.33067e-16
2.22045e-15
2.77556e-16
1.94289e-15
3.33067e-16
1.05471e-15
1.66533e-16
7.21645e-16
-4.44089e-16
1.16573e-15
-8.32667e-16
1.22125e-15
5.55112e-16
2.44249e-15
-3.88578e-16
1.72085e-15
-4.996e-16
1.38778e-15
-3.88578e-16
1.27676e-15
-9.99201e-16
1.4988e-15
-9.99201e-16
1.11022e-15
-1.77636e-15
1.4988e-15
-1.88738e-15
1.66533e-15
-1.27676e-15
2.83107e-15
-6.66134e-16
2.55351e-15
-4.996e-16
2.44249e-15
6.66134e-16
2.72005e-15
5.55112e-17
2.22045e-15
0
1.88738e-15
-6.66134e-16
1.83187e-15
-1.27676e-15
1.9984e-15
5.55112e-17
3.10862e-15
-6.10623e-16
3.27516e-15
2.22045e-16
3.33067e-15
-8.32667e-16
3.33067e-15
0
3.33067e-15
2.22045e-16
3.27516e-15
-2.77556e-16
2.498e-15
-8.88178e-16
2.44249e-15
-1.33227e-15
2.83107e-15
-1.11022e-16
3.10862e-15
4.996e-16
3.16414e-15
4.44089e-16
3.21965e-15
3.33067e-16
3.05311e-15
-1.11022e-16
2.10942e-15
-5.55112e-17
1.4988e-15
-1.16573e-15
1.55431e-15
-5.55112e-17
1.94289e-15
1.66533e-16
2.33147e-15
-2.22045e-16
1.77636e-15
-2.22045e-16
2.05391e-15
-4.996e-16
1.94289e-15
5.55112e-16
1.88738e-15
1.11022e-16
1.77636e-15
5.55112e-16
2.44249e-15
5.55112e-16
1.9984e-15
-7.21645e-16
1.88738e-15
-3.88578e-16
2.05391e-15
1.11022e-16
2.44249e-15
-2.77556e-16
2.33147e-15
1.16573e-15
2.83107e-15
7.21645e-16
2.05391e-15
6.10623e-16
1.27676e-15
5.55112e-17
1.33227e-15
5.55112e-17
9.4369e-16
-3.33067e-16
1.55431e-15
7.21645e-16
2.27596e-15
1.60982e-15
2.44249e-15
1.05471e-15
2.22045e-15
0
1.77636e-15
5.55112e-17
9.99201e-16
-1.05471e-15
1.05471e-15
-3.88578e-16
1.27676e-15
-2.22045e-16
1.60982e-15
3.88578e-16
1.88738e-15
-5.55112e-17
1.94289e-15
-6.66134e-16
1.83187e-15
7.21645e-16
2.60902e-15
2.77556e-16
2.60902e-15
3.88578e-16
2.83107e-15
2.22045e-16
1.94289e-15
-4.996e-16
1.77636e-15
-1.66533e-15
2.44249e-15
-8.32667e-16
3.05311e-15
-6.66134e-16
2.72005e-15
1.66533e-16
2.66454e-15
0
1.66533e-15
-1.11022e-16
1.72085e-15
-2.77556e-16
1.9984e-15
-5.55112e-17
2.44249e-15
-4.996e-16
2.66454e-15
-1.11022e-16
2.83107e-15
8.88178e-16
2.60902e-15
1.11022e-15
2.66454e-15
4.996e-16
1.77636e-15
4.44089e-16
1.38778e-15
0
8.32667e-16
-2.77556e-16
8.32667e-16
-6.10623e-16
1.44329e-15
4.996e-16
1.9984e-15
-6.66134e-16
1.72085e-15
-8.32667e-16
1.9984e-15
3.33067e-16
2.27596e-15
-3.33067e-16
1.88738e-15
-1.11022e-16
2.33147e-15
8.88178e-16
2.16493e-15
1.11022e-16
2.10942e-15
-8.88178e-16
2.33147e-15
5.55112e-16
2.83107e-15
-7.77156e-16
2.66454e-15
5.55112e-16
2.83107e-15
1.66533e-16
2.05391e-15
1.66533e-16
1.83187e-15
-1.66533e-16
1.83187e-15
2.22045e-16
1.72085e-15
1.66533e-16
2.22045e-15
5.55112e-17
2.44249e-15
8.88178e-16
2.33147e-15
1.44329e-15
2.22045e-15
1.55431e-15
0.811384
-1.84241e-05
0.809483
-1.00504e-05
0.807612
-6.22206e-06
0.805777
-5.19878e-06
0.803982
-4.93189e-06
0.802237
-5.11005e-06
0.800555
-5.41998e-06
0.798947
-5.62734e-06
0.797415
-5.70474e-06
0.795944
-5.69519e-06
0.794496
-5.64709e-06
0.793027
-5.59112e-06
0.791499
-5.53413e-06
0.789907
-5.48426e-06
0.788276
-5.44273e-06
0.78664
-5.41119e-06
0.785025
-5.39013e-06
0.78346
-5.37515e-06
0.781985
-5.37272e-06
0.780602
-5.37962e-06
0.779116
-5.39074e-06
0.776767
-5.39679e-06
0.770826
-5.39657e-06
0.750877
-5.32222e-06
0.679938
-4.98877e-06
0.47
-3.93088e-06
0.145805
-1.88984e-06
0.0094393
-3.35808e-07
7.76095e-05
-1.3712e-08
5.88545e-08
-8.21682e-11
3.9036e-12
-4.78506e-14
0
2.10942e-15
-1.11022e-15
1.88738e-15
-1.60982e-15
2.27596e-15
-1.05471e-15
2.66454e-15
-9.99201e-16
2.66454e-15
-8.32667e-16
2.05391e-15
-1.11022e-15
2.498e-15
-3.88578e-16
2.77556e-15
-4.996e-16
2.22045e-15
-1.11022e-16
2.38698e-15
-1.11022e-16
2.27596e-15
3.33067e-16
2.27596e-15
5.55112e-17
1.77636e-15
1.66533e-16
1.83187e-15
2.22045e-16
1.94289e-15
-5.55112e-16
1.94289e-15
-6.66134e-16
2.38698e-15
-5.55112e-17
2.05391e-15
-2.77556e-16
1.72085e-15
2.77556e-16
1.9984e-15
2.22045e-16
2.44249e-15
4.996e-16
2.60902e-15
9.4369e-16
2.22045e-15
4.44089e-16
1.33227e-15
-3.33067e-16
2.10942e-15
-6.66134e-16
1.9984e-15
-8.32667e-16
1.94289e-15
1.11022e-16
1.72085e-15
3.88578e-16
1.83187e-15
-1.11022e-16
2.22045e-15
3.88578e-16
1.88738e-15
-5.55112e-17
1.72085e-15
-1.11022e-15
1.4988e-15
-6.66134e-16
2.10942e-15
-3.33067e-16
2.16493e-15
-1.22125e-15
1.9984e-15
-8.32667e-16
2.05391e-15
-1.33227e-15
2.66454e-15
-8.88178e-16
2.77556e-15
-1.33227e-15
2.60902e-15
-6.10623e-16
3.21965e-15
-1.66533e-16
3.33067e-15
5.55112e-17
3.10862e-15
-2.22045e-16
3.16414e-15
-1.11022e-16
2.498e-15
-2.77556e-16
2.38698e-15
5.55112e-17
2.83107e-15
4.996e-16
3.44169e-15
-4.996e-16
2.88658e-15
0
3.71925e-15
-6.66134e-16
2.66454e-15
-5.55112e-17
3.44169e-15
-4.996e-16
2.94209e-15
-4.44089e-16
3.21965e-15
-4.44089e-16
3.44169e-15
-9.99201e-16
2.44249e-15
1.66533e-16
3.55271e-15
4.996e-16
3.4972e-15
3.88578e-16
3.16414e-15
-8.32667e-16
2.88658e-15
-4.996e-16
3.10862e-15
0
2.60902e-15
-6.10623e-16
2.27596e-15
2.77556e-16
1.77636e-15
-5.55112e-17
1.60982e-15
5.55112e-17
1.55431e-15
-5.55112e-16
1.60982e-15
-4.996e-16
2.27596e-15
3.88578e-16
2.16493e-15
6.66134e-16
2.38698e-15
0
2.10942e-15
4.44089e-16
2.66454e-15
-2.22045e-16
2.33147e-15
-1.11022e-16
2.60902e-15
0
3.38618e-15
1.11022e-16
2.60902e-15
3.88578e-16
2.83107e-15
3.88578e-16
2.498e-15
6.10623e-16
2.27596e-15
-2.22045e-16
1.60982e-15
4.996e-16
1.55431e-15
5.55112e-16
1.94289e-15
7.21645e-16
2.38698e-15
1.11022e-15
2.27596e-15
3.88578e-16
1.66533e-15
-5.55112e-16
1.33227e-15
0
1.05471e-15
-6.10623e-16
1.27676e-15
4.44089e-16
1.44329e-15
1.11022e-16
1.16573e-15
1.66533e-16
1.11022e-15
-1.66533e-16
1.66533e-15
-5.55112e-17
2.16493e-15
5.55112e-16
2.44249e-15
5.55112e-16
2.83107e-15
-7.21645e-16
2.66454e-15
-1.11022e-16
2.83107e-15
1.66533e-16
2.66454e-15
-9.99201e-16
2.44249e-15
-4.996e-16
2.77556e-15
-9.99201e-16
2.33147e-15
-1.05471e-15
1.83187e-15
-5.55112e-17
2.22045e-15
2.22045e-16
2.77556e-15
5.55112e-16
3.10862e-15
1.11022e-16
2.72005e-15
-1.11022e-16
2.83107e-15
-4.996e-16
3.16414e-15
3.88578e-16
3.10862e-15
4.44089e-16
1.88738e-15
-1.11022e-16
1.9984e-15
-2.77556e-16
1.83187e-15
-5.55112e-17
1.77636e-15
7.77156e-16
1.77636e-15
-2.77556e-16
1.38778e-15
1.11022e-16
1.9984e-15
-6.10623e-16
1.66533e-15
-6.10623e-16
1.55431e-15
-1.11022e-16
2.66454e-15
1.66533e-16
2.10942e-15
-2.77556e-16
1.88738e-15
6.10623e-16
2.77556e-15
4.44089e-16
3.05311e-15
-4.44089e-16
2.498e-15
3.33067e-16
2.88658e-15
-7.77156e-16
2.38698e-15
-5.55112e-16
3.27516e-15
0
3.27516e-15
-5.55112e-17
3.27516e-15
0
3.27516e-15
8.32667e-16
2.83107e-15
4.996e-16
2.77556e-15
1.11022e-16
2.55351e-15
4.996e-16
2.77556e-15
1.11022e-15
2.33147e-15
2.66454e-15
0.8114
-3.23001e-05
0.80949
-1.8812e-05
0.807614
-1.02215e-05
0.805776
-6.18575e-06
0.803981
-5.02371e-06
0.802236
-4.78571e-06
0.800555
-4.9966e-06
0.798947
-5.36791e-06
0.797415
-5.57253e-06
0.795944
-5.63331e-06
0.794496
-5.60916e-06
0.793027
-5.57042e-06
0.791499
-5.51269e-06
0.789907
-5.45989e-06
0.788276
-5.41618e-06
0.78664
-5.38256e-06
0.785025
-5.3589e-06
0.78346
-5.34267e-06
0.781985
-5.33595e-06
0.780602
-5.33626e-06
0.779116
-5.34013e-06
0.776767
-5.34348e-06
0.770826
-5.33216e-06
0.750877
-5.24161e-06
0.679939
-4.90497e-06
0.470002
-3.85954e-06
0.145807
-1.85455e-06
0.00943954
-3.29386e-07
7.76128e-05
-1.34416e-08
5.8858e-08
-8.04976e-11
3.90282e-12
-4.65183e-14
3.88578e-16
1.60982e-15
-7.77156e-16
2.94209e-15
-9.4369e-16
1.9984e-15
-1.05471e-15
1.77636e-15
-1.60982e-15
2.05391e-15
-6.10623e-16
1.72085e-15
-7.77156e-16
1.44329e-15
-7.77156e-16
1.60982e-15
-3.33067e-16
2.16493e-15
-1.66533e-16
1.83187e-15
-1.11022e-16
1.88738e-15
-3.33067e-16
1.38778e-15
5.55112e-17
2.16493e-15
1.11022e-16
1.66533e-15
1.11022e-16
2.05391e-15
-4.44089e-16
1.88738e-15
-9.4369e-16
1.83187e-15
-5.55112e-16
1.77636e-15
3.88578e-16
2.27596e-15
6.66134e-16
1.83187e-15
3.88578e-16
1.72085e-15
3.33067e-16
1.4988e-15
5.55112e-17
1.9984e-15
7.21645e-16
2.27596e-15
-1.11022e-16
1.77636e-15
-8.32667e-16
9.99201e-16
-1.33227e-15
1.05471e-15
1.66533e-16
1.77636e-15
4.996e-16
1.27676e-15
-3.88578e-16
1.27676e-15
1.66533e-16
9.99201e-16
-2.77556e-16
9.4369e-16
-4.996e-16
1.22125e-15
-5.55112e-16
1.94289e-15
-5.55112e-16
1.77636e-15
-9.99201e-16
1.60982e-15
-3.33067e-16
1.77636e-15
-1.22125e-15
1.72085e-15
-1.11022e-15
1.60982e-15
-8.88178e-16
1.88738e-15
-4.996e-16
2.27596e-15
-4.996e-16
2.38698e-15
-5.55112e-17
2.27596e-15
-9.99201e-16
2.27596e-15
-2.22045e-16
2.33147e-15
5.55112e-17
2.66454e-15
1.11022e-16
2.16493e-15
-1.11022e-16
1.94289e-15
5.55112e-17
2.22045e-15
-4.996e-16
2.38698e-15
-2.77556e-16
2.22045e-15
-3.88578e-16
2.10942e-15
-4.44089e-16
1.72085e-15
-3.33067e-16
1.94289e-15
-1.33227e-15
2.33147e-15
-2.77556e-16
2.66454e-15
3.33067e-16
2.72005e-15
1.11022e-16
2.16493e-15
2.22045e-16
2.66454e-15
-7.21645e-16
2.33147e-15
-1.11022e-15
1.66533e-15
-3.88578e-16
2.05391e-15
-1.44329e-15
2.27596e-15
-1.66533e-16
2.498e-15
5.55112e-17
2.44249e-15
5.55112e-17
2.33147e-15
1.66533e-16
2.77556e-15
-3.88578e-16
1.9984e-15
5.55112e-16
2.44249e-15
2.77556e-16
1.88738e-15
3.88578e-16
1.60982e-15
1.11022e-16
2.10942e-15
-1.66533e-16
2.44249e-15
5.55112e-16
2.66454e-15
-1.66533e-16
2.66454e-15
1.66533e-16
2.33147e-15
2.77556e-16
1.33227e-15
0
1.44329e-15
-3.88578e-16
1.55431e-15
0
2.27596e-15
1.05471e-15
2.38698e-15
7.21645e-16
2.44249e-15
3.88578e-16
1.94289e-15
7.21645e-16
2.44249e-15
-2.22045e-16
8.88178e-16
-8.32667e-16
7.21645e-16
0
1.60982e-15
-3.33067e-16
2.05391e-15
-1.11022e-16
2.16493e-15
-1.11022e-16
2.44249e-15
7.21645e-16
2.22045e-15
3.88578e-16
2.16493e-15
6.66134e-16
2.33147e-15
8.88178e-16
2.66454e-15
6.10623e-16
2.38698e-15
-2.77556e-16
2.05391e-15
-2.22045e-16
1.94289e-15
-1.66533e-16
2.27596e-15
-1.16573e-15
1.83187e-15
-8.88178e-16
2.44249e-15
-1.72085e-15
1.60982e-15
-5.55112e-16
2.05391e-15
6.66134e-16
2.33147e-15
2.77556e-16
1.88738e-15
1.66533e-16
2.498e-15
5.55112e-17
1.77636e-15
2.22045e-16
2.27596e-15
-4.996e-16
2.33147e-15
-5.55112e-16
2.9976e-15
3.33067e-16
2.498e-15
0
2.33147e-15
-1.66533e-16
1.94289e-15
0
2.55351e-15
1.11022e-16
1.88738e-15
1.66533e-16
1.88738e-15
-1.66533e-16
1.60982e-15
-6.66134e-16
1.60982e-15
5.55112e-16
2.16493e-15
-2.77556e-16
2.16493e-15
-1.11022e-16
2.27596e-15
4.996e-16
2.22045e-15
8.32667e-16
2.16493e-15
-5.55112e-17
2.27596e-15
1.11022e-16
2.72005e-15
-5.55112e-17
2.66454e-15
-3.33067e-16
1.77636e-15
0
1.72085e-15
-5.55112e-17
1.77636e-15
-3.33067e-16
2.10942e-15
-4.44089e-16
2.72005e-15
4.996e-16
2.33147e-15
6.10623e-16
2.66454e-15
-2.22045e-16
1.72085e-15
3.33067e-16
2.77556e-15
1.16573e-15
1.94289e-15
1.55431e-15
0.811425
-4.84185e-05
0.809506
-3.28006e-05
0.807621
-1.90741e-05
0.805778
-1.02941e-05
0.80398
-6.13688e-06
0.802236
-4.89731e-06
0.800554
-4.6577e-06
0.798946
-4.8777e-06
0.797415
-5.26849e-06
0.795944
-5.49985e-06
0.794496
-5.57876e-06
0.793027
-5.53819e-06
0.7915
-5.50378e-06
0.789907
-5.44922e-06
0.788276
-5.39853e-06
0.78664
-5.35893e-06
0.785025
-5.3304e-06
0.78346
-5.3103e-06
0.781985
-5.29725e-06
0.780602
-5.28959e-06
0.779116
-5.2849e-06
0.776767
-5.27856e-06
0.770826
-5.25062e-06
0.750877
-5.15394e-06
0.679939
-4.81778e-06
0.470004
-3.78968e-06
0.145809
-1.82084e-06
0.00943978
-3.23359e-07
7.76159e-05
-1.31915e-08
5.88614e-08
-7.89655e-11
3.90477e-12
-4.65739e-14
-2.77556e-16
1.38778e-15
-1.22125e-15
1.83187e-15
-1.22125e-15
1.38778e-15
-9.4369e-16
1.22125e-15
-1.77636e-15
1.33227e-15
-1.05471e-15
1.88738e-15
-3.88578e-16
2.55351e-15
-2.77556e-16
1.83187e-15
-4.996e-16
2.38698e-15
-2.77556e-16
1.77636e-15
-2.77556e-16
1.66533e-15
3.88578e-16
2.22045e-15
-1.66533e-16
1.38778e-15
7.21645e-16
1.83187e-15
2.22045e-16
1.55431e-15
-6.66134e-16
1.33227e-15
-1.11022e-15
1.55431e-15
-1.66533e-16
1.77636e-15
-1.11022e-16
1.94289e-15
8.32667e-16
1.9984e-15
-5.55112e-17
1.22125e-15
1.05471e-15
1.72085e-15
7.21645e-16
1.60982e-15
1.66533e-16
1.44329e-15
-8.32667e-16
1.88738e-15
-6.10623e-16
1.66533e-15
-3.88578e-16
2.498e-15
-5.55112e-17
1.77636e-15
5.55112e-16
2.10942e-15
-6.10623e-16
1.16573e-15
-1.11022e-16
1.94289e-15
2.22045e-16
2.44249e-15
1.11022e-16
1.60982e-15
-4.996e-16
2.27596e-15
-7.77156e-16
2.10942e-15
-9.4369e-16
1.60982e-15
-5.55112e-16
1.9984e-15
-1.38778e-15
1.38778e-15
-9.99201e-16
2.498e-15
-3.33067e-16
2.88658e-15
-2.22045e-16
3.05311e-15
-3.88578e-16
2.9976e-15
-2.77556e-16
2.22045e-15
-8.32667e-16
2.05391e-15
0
2.94209e-15
-3.88578e-16
2.38698e-15
5.55112e-17
2.9976e-15
5.55112e-16
3.44169e-15
5.55112e-17
2.22045e-15
-7.21645e-16
2.83107e-15
-7.21645e-16
2.60902e-15
-2.77556e-16
3.44169e-15