/*--------------------------------*- C++ -*----------------------------------*\
  =========                 |
  \\      /  F ield         | OpenFOAM: The Open Source CFD Toolbox
   \\    /   O peration     | Website:  https://openfoam.org
    \\  /    A nd           | Version:  13
     \\/     M anipulation  |
\*---------------------------------------------------------------------------*/
FoamFile
{
    format      ascii;
    class       volVectorField;
    location    "0.0009";
    object      U;
}
// * * * * * * * * * * * * * * * * * * * * * * * * * * * * * * * * * * * * * //

dimensions      [0 1 -1 0 0 0 0];

internalField   nonuniform List<vector> 
33333
(
(7.57422e-14 -1.21994e-13 0)
(-1.06956e-13 -1.23615e-13 0)
(-2.26886e-13 -7.70854e-14 0)
(-1.30516e-13 3.05656e-14 0)
(1.78925e-13 1.88129e-14 0)
(3.99437e-13 6.82634e-14 0)
(2.71079e-13 9.97214e-15 0)
(3.74056e-14 -9.74687e-14 0)
(3.42557e-15 -1.39594e-13 0)
(-2.71902e-14 -1.32549e-13 0)
(-5.22359e-14 -1.39133e-13 0)
(-1.51651e-14 -1.21855e-13 0)
(-1.33686e-13 -1.33821e-13 0)
(-1.59351e-13 -1.22328e-13 0)
(-1.12273e-13 -1.4017e-13 0)
(-1.9518e-13 -1.19121e-13 0)
(-1.80776e-13 2.50583e-14 0)
(2.51163e-14 1.87945e-14 0)
(1.67633e-13 4.95124e-14 0)
(8.50772e-14 3.89195e-16 0)
(-4.15427e-14 -3.1136e-14 0)
(1.36821e-14 2.2895e-14 0)
(2.21538e-13 -8.67352e-15 0)
(2.28591e-13 -7.4247e-14 0)
(7.86893e-14 -7.52013e-14 0)
(-1.21863e-14 -1.18443e-13 0)
(-4.76831e-14 -1.36884e-13 0)
(-3.33512e-14 -1.74629e-13 0)
(2.04717e-14 -6.51792e-14 0)
(2.04399e-13 -4.38423e-14 0)
(2.58033e-13 -6.41804e-14 0)
(1.35993e-13 -9.00168e-14 0)
(-3.9071e-14 -1.0258e-13 0)
(-1.5958e-13 -8.95205e-14 0)
(-2.00798e-13 -1.032e-14 0)
(-1.11402e-13 -1.7746e-14 0)
(-5.21057e-14 -3.90875e-14 0)
(-2.0003e-14 -9.72366e-14 0)
(1.10607e-14 -4.70121e-14 0)
(-1.50628e-15 -5.91051e-14 0)
(-1.50002e-13 -4.32294e-14 0)
(-2.01091e-13 4.82906e-14 0)
(-1.40784e-14 6.42854e-14 0)
(-1.83086e-14 -4.17613e-15 0)
(-1.02907e-13 -1.32567e-14 0)
(-6.55847e-14 7.05229e-14 0)
(2.10611e-13 -2.00009e-15 0)
(1.80268e-13 -1.01786e-13 0)
(6.56637e-14 1.12047e-14 0)
(1.73703e-13 5.17e-15 0)
(1.80305e-13 -6.85139e-14 0)
(8.4608e-15 -1.3154e-13 0)
(3.635e-14 -1.59257e-13 0)
(2.04447e-14 -1.30108e-13 0)
(-1.39473e-13 -1.21705e-13 0)
(3.08904e-14 -5.41419e-15 0)
(-6.19172e-15 -3.87853e-14 0)
(-1.07401e-13 -8.19673e-14 0)
(-4.60629e-14 -7.72576e-14 0)
(-9.95269e-14 -3.92306e-14 0)
(-9.27198e-14 -7.91681e-14 0)
(-2.40893e-13 -1.08562e-13 0)
(-2.12301e-13 -2.19746e-14 0)
(-3.64809e-14 -2.46816e-14 0)
(3.25392e-14 1.48372e-14 0)
(2.54439e-14 -4.15691e-14 0)
(-7.75074e-14 -6.38054e-14 0)
(1.25932e-15 -4.24017e-14 0)
(1.60126e-13 -1.64144e-14 0)
(1.3727e-13 -5.83521e-14 0)
(1.18846e-13 -1.24586e-14 0)
(2.5083e-13 1.91806e-14 0)
(2.54633e-13 -7.50024e-14 0)
(1.49576e-13 -4.58092e-14 0)
(6.40318e-14 -1.46245e-13 0)
(4.84536e-15 -2.26854e-13 0)
(-4.31176e-14 -2.08054e-13 0)
(-7.08058e-14 -1.43761e-13 0)
(-4.46609e-14 -6.15319e-14 0)
(1.85394e-14 -5.64291e-15 0)
(1.12513e-13 -7.43394e-14 0)
(8.48393e-14 -1.4126e-13 0)
(-2.72673e-15 -1.57654e-13 0)
(-1.55319e-14 -1.61378e-13 0)
(3.86846e-14 -1.14216e-13 0)
(3.55265e-14 -1.09547e-13 0)
(-1.08556e-13 -1.3005e-13 0)
(-1.3532e-13 -1.28479e-13 0)
(-1.00933e-13 -7.30973e-14 0)
(-4.0341e-14 -3.85227e-14 0)
(-6.06389e-14 -4.28813e-14 0)
(-1.30804e-13 -2.00994e-14 0)
(-6.97588e-14 -7.84862e-14 0)
(-1.37857e-14 -5.72141e-14 0)
(2.0036e-14 -8.4418e-14 0)
(-7.01969e-14 -1.36098e-13 0)
(8.38295e-15 -1.22337e-13 0)
(9.04195e-14 -1.40082e-13 0)
(4.1311e-14 -8.69248e-14 0)
(-7.18168e-14 -1.03337e-13 0)
(-1.11255e-13 -1.20793e-13 0)
(-1.59351e-13 -1.14885e-13 0)
(-1.08602e-13 -2.84058e-14 0)
(2.73518e-14 -2.07924e-14 0)
(4.5355e-14 -9.99288e-14 0)
(4.25168e-14 -1.14085e-13 0)
(2.85459e-14 -1.02101e-13 0)
(-1.9772e-14 -7.67563e-14 0)
(-3.00393e-14 -9.54057e-14 0)
(3.84826e-14 -1.22315e-13 0)
(5.82953e-14 -1.31887e-13 0)
(2.98765e-14 -1.10093e-13 0)
(4.49153e-14 -9.75118e-14 0)
(-3.82788e-14 -6.11009e-14 0)
(-1.59282e-13 -1.26129e-14 0)
(-1.4858e-13 -2.79376e-14 0)
(-5.36177e-14 -1.24112e-14 0)
(7.44145e-14 6.6913e-14 0)
(8.17443e-14 5.63477e-14 0)
(1.75211e-13 2.23727e-14 0)
(1.62461e-13 -8.68833e-14 0)
(-5.15084e-14 -7.96742e-14 0)
(-1.41964e-13 -1.94109e-14 0)
(-4.77509e-14 -5.33931e-14 0)
(-3.78194e-14 -1.5112e-13 0)
(-2.00861e-13 -1.97005e-13 0)
(-2.40531e-13 -1.60228e-13 0)
(-3.87389e-14 -1.0054e-13 0)
(6.67834e-14 -1.19116e-13 0)
(-2.26242e-14 -1.41325e-13 0)
(-4.5202e-14 -7.97708e-14 0)
(-1.01592e-14 5.50338e-14 0)
(-1.04917e-13 3.35165e-14 0)
(-1.40286e-13 1.22634e-13 0)
(2.77384e-14 1.36115e-13 0)
(2.87336e-14 1.8668e-13 0)
(2.11762e-14 1.99303e-13 0)
(-6.41099e-14 1.26841e-13 0)
(-1.08775e-13 8.63235e-14 0)
(-6.89023e-14 -2.16776e-14 0)
(-2.63209e-13 -7.57512e-14 0)
(-3.08215e-13 -4.54412e-14 0)
(-2.0958e-13 2.88215e-14 0)
(-3.30358e-14 8.59726e-14 0)
(-1.50237e-14 7.19825e-14 0)
(-2.34572e-14 1.04937e-13 0)
(1.60492e-13 6.75752e-14 0)
(1.64925e-13 -8.21159e-17 0)
(5.97053e-14 -2.17578e-14 0)
(-9.93008e-14 -7.00737e-14 0)
(-3.01074e-13 -7.37105e-14 0)
(-2.41094e-13 8.14365e-14 0)
(-1.67108e-13 1.40673e-13 0)
(-1.98001e-13 1.44572e-13 0)
(-2.00649e-13 1.33964e-13 0)
(-7.89073e-14 1.27104e-13 0)
(-3.85076e-14 4.57526e-14 0)
(3.38461e-14 3.66364e-14 0)
(4.39413e-14 1.73952e-14 0)
(5.16068e-14 8.54743e-14 0)
(1.55237e-13 1.31992e-13 0)
(5.92177e-14 1.2824e-13 0)
(-9.16274e-14 1.82811e-13 0)
(1.68938e-14 1.76898e-13 0)
(-1.21349e-14 9.21434e-14 0)
(-1.75387e-13 4.93139e-14 0)
(-1.04834e-13 9.11662e-15 0)
(1.18286e-14 -2.33836e-13 0)
(-6.69678e-14 -2.03124e-13 0)
(-8.19921e-14 -1.14855e-13 0)
(-3.28131e-14 -3.92996e-14 0)
(1.71035e-13 -9.82339e-14 0)
(3.30011e-13 -8.00627e-14 0)
(1.687e-13 -1.50003e-13 0)
(8.81579e-14 -1.95392e-13 0)
(3.14373e-14 -2.60331e-13 0)
(-7.40609e-14 -2.4874e-13 0)
(-4.57773e-14 -2.55965e-13 0)
(-5.15301e-15 -2.30231e-13 0)
(-1.21881e-13 -2.81366e-13 0)
(-1.84227e-13 -2.2169e-13 0)
(-1.69766e-13 -1.00726e-13 0)
(-7.60662e-14 -1.27556e-13 0)
(-9.91138e-14 -2.12813e-14 0)
(-1.94228e-14 -5.90437e-14 0)
(8.43584e-14 -2.62489e-14 0)
(3.57429e-14 -8.57046e-14 0)
(-5.3214e-15 -1.28969e-13 0)
(-1.95911e-14 -8.48452e-14 0)
(1.10536e-13 -1.20476e-13 0)
(2.10365e-13 -2.43619e-13 0)
(9.74462e-14 -4.26693e-13 0)
(-8.70824e-15 -4.41732e-13 0)
(-5.67484e-14 -4.10085e-13 0)
(6.12e-14 -3.09837e-13 0)
(1.33517e-13 -1.91755e-13 0)
(1.62796e-13 -2.30953e-13 0)
(1.9247e-13 -3.27688e-13 0)
(1.27965e-13 -2.96758e-13 0)
(3.57687e-14 -3.82521e-13 0)
(-1.10856e-13 -2.92472e-13 0)
(-1.99728e-13 -1.38569e-13 0)
(-1.48181e-13 -1.12278e-13 0)
(-1.50894e-13 -1.50364e-13 0)
(-1.77723e-14 -2.01739e-13 0)
(4.57884e-14 -1.72712e-13 0)
(-3.24665e-14 -1.42824e-13 0)
(-7.52166e-14 -1.38303e-13 0)
(-1.30924e-13 -4.0614e-15 0)
(-8.4632e-14 7.03457e-15 0)
(-7.36821e-14 -1.3305e-13 0)
(-9.48454e-14 -1.00412e-13 0)
(-4.66727e-14 1.59763e-14 0)
(1.00216e-13 -3.86651e-15 0)
(1.75236e-13 -1.23868e-13 0)
(1.4199e-13 -8.72115e-14 0)
(1.82812e-13 -1.46128e-13 0)
(1.30641e-13 -3.00582e-13 0)
(-7.55951e-15 -2.80979e-13 0)
(-8.04214e-15 -3.29114e-13 0)
(2.75169e-14 -3.33923e-13 0)
(-5.17161e-14 -2.36779e-13 0)
(1.70343e-14 -8.23028e-14 0)
(-2.69821e-14 -1.592e-13 0)
(-8.21449e-14 -1.11227e-13 0)
(-2.37066e-14 -2.08772e-13 0)
(-1.25384e-13 -1.41943e-13 0)
(-1.72152e-13 -1.75375e-13 0)
(-2.1748e-13 -1.55499e-13 0)
(-1.53486e-13 -1.08929e-13 0)
(-2.89023e-14 -9.02729e-14 0)
(1.32246e-14 5.33697e-15 0)
(-1.41898e-14 -9.54766e-14 0)
(-6.49367e-15 -8.93011e-14 0)
(4.87145e-14 -2.76484e-14 0)
(1.34019e-13 -1.05676e-13 0)
(1.54133e-13 -1.34028e-13 0)
(2.02467e-13 -8.80854e-14 0)
(1.82845e-13 -9.07164e-14 0)
(1.54675e-13 -1.96906e-13 0)
(7.42222e-14 -2.96208e-13 0)
(-8.22671e-15 -3.5222e-13 0)
(-2.63662e-14 -3.47211e-13 0)
(3.39926e-14 -2.68033e-13 0)
(5.71869e-14 -2.05642e-13 0)
(6.51853e-14 -1.28622e-13 0)
(-4.80856e-16 -9.43489e-14 0)
(2.61006e-15 -1.80357e-13 0)
(5.71408e-14 -2.26032e-13 0)
(6.36514e-14 -2.73234e-13 0)
(6.08071e-14 -2.51415e-13 0)
(8.77524e-14 -2.31371e-13 0)
(-2.3411e-14 -2.40152e-13 0)
(-1.44821e-13 -2.93231e-13 0)
(-1.21206e-13 -2.47565e-13 0)
(-6.72755e-14 -1.63686e-13 0)
(-8.13311e-14 -1.19931e-13 0)
(-1.54568e-14 -1.61224e-13 0)
(-1.29903e-13 -7.94821e-14 0)
(-1.36056e-13 -1.40591e-13 0)
(-4.14113e-14 -1.65747e-13 0)
(-1.01906e-13 -2.08591e-13 0)
(-1.20786e-13 -2.66201e-13 0)
(-2.73558e-14 -2.67367e-13 0)
(6.7188e-14 -3.51984e-13 0)
(5.93899e-14 -3.02859e-13 0)
(-1.44706e-14 -2.59632e-13 0)
(-4.7157e-14 -2.47978e-13 0)
(-9.17485e-14 -2.08055e-13 0)
(-2.07442e-14 -1.07966e-13 0)
(-6.7139e-15 -1.33334e-13 0)
(-1.23552e-14 -1.70131e-13 0)
(2.05745e-14 -2.10566e-13 0)
(6.54217e-14 -2.0933e-13 0)
(1.08619e-14 -2.27813e-13 0)
(-2.9227e-14 -2.19327e-13 0)
(4.00184e-14 -1.48263e-13 0)
(6.13301e-14 -1.96206e-13 0)
(2.38669e-14 -2.75802e-13 0)
(1.16804e-13 -3.01453e-13 0)
(-4.38095e-14 -2.22662e-13 0)
(-2.06672e-13 -1.58029e-13 0)
(-1.5494e-13 -1.85588e-13 0)
(3.48109e-14 -1.24677e-13 0)
(1.12819e-13 -7.96126e-14 0)
(6.01084e-14 -9.70773e-14 0)
(8.68245e-14 -1.49569e-13 0)
(7.94148e-14 -2.73264e-13 0)
(-3.02483e-14 -2.34658e-13 0)
(-1.71566e-13 -1.9512e-13 0)
(-1.02113e-13 -2.51914e-13 0)
(-5.99942e-14 -3.63593e-13 0)
(-1.75647e-13 -3.74789e-13 0)
(-1.94109e-13 -2.86168e-13 0)
(-3.27732e-14 -2.09313e-13 0)
(1.16333e-14 -2.06435e-13 0)
(-3.48712e-14 -2.09627e-13 0)
(-8.03032e-15 -8.64311e-14 0)
(7.25041e-14 -8.95978e-14 0)
(-1.54915e-14 -4.85639e-14 0)
(-8.34025e-14 6.49188e-14 0)
(-6.50656e-15 5.30016e-14 0)
(1.77407e-14 1.52113e-15 0)
(-3.60083e-14 -3.84254e-14 0)
(-1.0313e-13 -9.34777e-14 0)
(-1.62004e-13 -8.40699e-14 0)
(-1.56854e-13 -1.50865e-13 0)
(-2.3168e-13 -2.10329e-13 0)
(-2.33283e-13 -1.20432e-13 0)
(-1.1393e-13 -1.47635e-14 0)
(-4.16155e-14 4.06409e-15 0)
(-6.36629e-15 -8.74321e-15 0)
(-5.21894e-14 7.17621e-14 0)
(4.15623e-14 2.55852e-15 0)
(1.11285e-13 -9.25504e-14 0)
(2.69631e-15 -2.07105e-13 0)
(-1.04043e-13 -3.19186e-13 0)
(-1.69066e-13 -2.34866e-13 0)
(-1.1279e-13 -8.26329e-14 0)
(-1.40431e-13 5.90191e-15 0)
(-1.91878e-13 -5.12463e-15 0)
(-1.5903e-13 1.17879e-13 0)
(-1.55505e-13 1.62293e-13 0)
(-1.0162e-13 1.52613e-13 0)
(-2.74663e-14 1.16412e-13 0)
(2.79068e-14 6.84763e-14 0)
(8.82083e-14 5.92595e-14 0)
(1.18352e-13 9.63928e-14 0)
(1.64105e-14 -2.46518e-14 0)
(-4.20748e-14 2.06454e-14 0)
(-1.539e-14 3.13533e-14 0)
(-8.44139e-14 -2.72195e-14 0)
(-1.7942e-13 -4.38944e-14 0)
(-1.57514e-13 9.58487e-15 0)
(4.27798e-14 -2.2407e-13 0)
(-6.72363e-15 -1.74902e-13 0)
(-4.1012e-14 -1.73229e-13 0)
(-3.9917e-14 -1.47425e-13 0)
(1.4723e-13 -9.33477e-14 0)
(2.73326e-13 -1.73277e-13 0)
(1.50721e-13 -2.33061e-13 0)
(6.14542e-14 -1.55859e-13 0)
(8.83723e-15 -1.70462e-13 0)
(-4.71883e-14 -2.7729e-13 0)
(-6.43928e-15 -3.28914e-13 0)
(-3.54907e-14 -3.29214e-13 0)
(-1.58173e-13 -2.51747e-13 0)
(-6.31117e-14 -2.67341e-13 0)
(-4.68907e-14 -1.86551e-13 0)
(-1.02671e-13 -1.57813e-13 0)
(-1.30636e-13 -1.96336e-13 0)
(-4.18141e-14 -1.47773e-13 0)
(9.67462e-14 -2.05229e-13 0)
(-1.7344e-14 -1.75345e-13 0)
(-8.61298e-14 -2.42434e-13 0)
(2.43114e-15 -2.1157e-13 0)
(1.07889e-13 -9.67332e-14 0)
(4.7709e-14 -2.05915e-13 0)
(2.87056e-15 -3.87932e-13 0)
(1.84366e-15 -3.58624e-13 0)
(4.0679e-14 -3.39886e-13 0)
(1.47968e-13 -2.07176e-13 0)
(1.00179e-13 -2.55192e-13 0)
(7.85479e-14 -3.10815e-13 0)
(1.78675e-13 -2.84014e-13 0)
(1.06963e-13 -2.34802e-13 0)
(-1.21098e-14 -2.57299e-13 0)
(3.71484e-15 -2.47831e-13 0)
(-7.0494e-14 -2.89508e-13 0)
(-1.33537e-13 -2.91656e-13 0)
(-1.57328e-13 -2.33432e-13 0)
(-8.16209e-14 -1.44379e-13 0)
(5.20232e-14 -2.11552e-13 0)
(5.48143e-14 -1.32141e-13 0)
(-5.33843e-14 -1.8494e-13 0)
(-8.73028e-14 -1.66026e-13 0)
(-1.63505e-13 -1.19197e-13 0)
(-9.66888e-14 -1.58757e-13 0)
(1.09912e-14 -1.1461e-13 0)
(9.82103e-15 -1.23658e-13 0)
(7.29823e-14 -4.96013e-14 0)
(1.301e-13 -2.11583e-14 0)
(1.06595e-13 -3.05132e-14 0)
(6.26628e-14 -7.85197e-14 0)
(8.6685e-14 -2.03101e-13 0)
(2.12333e-14 -2.65237e-13 0)
(-2.92016e-14 -2.50312e-13 0)
(6.85336e-14 -2.71927e-13 0)
(7.23525e-14 -2.2622e-13 0)
(9.1536e-14 -1.48404e-13 0)
(1.66875e-14 -2.08088e-13 0)
(-1.05317e-13 -1.17092e-13 0)
(-1.01152e-13 -1.92008e-13 0)
(-7.39157e-14 -2.81092e-13 0)
(-1.37977e-13 -2.20473e-13 0)
(-1.99072e-13 -2.17818e-13 0)
(-1.12808e-13 -1.41974e-13 0)
(4.29434e-14 -1.33178e-13 0)
(2.68203e-14 -1.02441e-13 0)
(-4.56179e-14 -5.62014e-14 0)
(4.16141e-14 -1.1529e-13 0)
(-1.17268e-14 -1.02969e-13 0)
(3.26171e-14 -1.48641e-13 0)
(1.5424e-13 -2.0056e-13 0)
(1.37773e-13 -2.00026e-13 0)
(1.10797e-13 -2.49016e-13 0)
(5.01029e-14 -3.05134e-13 0)
(-4.33718e-15 -3.44792e-13 0)
(1.77033e-14 -3.66547e-13 0)
(5.03955e-14 -2.46402e-13 0)
(9.54407e-14 -2.11892e-13 0)
(7.43617e-14 -1.81135e-13 0)
(1.01962e-13 -2.11892e-13 0)
(-3.39842e-14 -2.14849e-13 0)
(7.6267e-15 -2.05406e-13 0)
(3.00922e-14 -1.34485e-13 0)
(-5.20576e-15 -1.74985e-13 0)
(7.32354e-14 -2.20149e-13 0)
(6.5851e-14 -3.37103e-13 0)
(-3.2985e-14 -3.93439e-13 0)
(-1.33705e-13 -4.19216e-13 0)
(-2.1527e-14 -2.74243e-13 0)
(6.90336e-14 -2.09853e-13 0)
(-3.83592e-14 -1.32935e-13 0)
(-1.41843e-14 -1.37859e-13 0)
(-1.50773e-13 -1.73304e-13 0)
(-2.00845e-13 -1.57645e-13 0)
(-9.64458e-14 -1.98067e-13 0)
(-1.10173e-13 -2.81851e-13 0)
(-1.50993e-13 -1.93325e-13 0)
(-5.77689e-14 -1.61364e-13 0)
(8.15471e-14 -2.34939e-13 0)
(1.20304e-13 -2.7501e-13 0)
(2.98869e-14 -2.69883e-13 0)
(-8.19241e-15 -2.24978e-13 0)
(1.11756e-14 -2.53489e-13 0)
(2.86278e-15 -2.59408e-13 0)
(1.81084e-14 -2.19566e-13 0)
(2.00019e-14 -1.46071e-13 0)
(2.98257e-14 -1.5169e-13 0)
(3.79537e-15 -1.55953e-13 0)
(-3.92777e-14 -1.77652e-13 0)
(2.81721e-14 -2.20019e-13 0)
(5.67465e-14 -2.65364e-13 0)
(-4.11175e-14 -2.93296e-13 0)
(-4.90725e-14 -3.7e-13 0)
(7.34055e-14 -2.86394e-13 0)
(7.03076e-14 -3.17635e-13 0)
(-5.2464e-14 -2.43866e-13 0)
(-9.04828e-14 -1.86736e-13 0)
(2.59643e-15 -2.47254e-13 0)
(4.90693e-14 -3.0797e-13 0)
(3.4288e-14 -3.06515e-13 0)
(2.43622e-14 -3.19123e-13 0)
(5.74591e-14 -3.50472e-13 0)
(5.00954e-14 -3.18525e-13 0)
(-1.25586e-13 -2.40554e-13 0)
(-1.92641e-13 -2.07454e-13 0)
(-1.31152e-13 -3.18205e-13 0)
(-1.66024e-13 -3.5142e-13 0)
(-5.11265e-14 -2.65088e-13 0)
(3.19557e-14 -1.22211e-13 0)
(2.02626e-14 -1.49204e-13 0)
(3.37185e-14 -1.2054e-13 0)
(4.25515e-14 -2.05009e-14 0)
(6.36629e-16 -3.70755e-14 0)
(1.14768e-14 -7.87555e-14 0)
(-3.5255e-14 -3.94784e-14 0)
(-6.55091e-14 -9.08354e-14 0)
(-1.04128e-13 -1.52709e-13 0)
(-4.05428e-14 -2.35995e-13 0)
(-3.9779e-14 -2.85222e-13 0)
(-1.0547e-13 -2.45537e-13 0)
(-1.36962e-13 -2.35753e-13 0)
(-2.02064e-13 -3.05979e-13 0)
(-1.40737e-13 -2.2118e-13 0)
(-1.28183e-13 -1.20933e-13 0)
(-5.4977e-14 -1.08781e-13 0)
(2.67536e-14 -8.9785e-14 0)
(1.55979e-14 -2.49027e-14 0)
(3.57871e-15 -3.45946e-14 0)
(-6.53286e-14 -1.18804e-13 0)
(-1.09506e-13 -2.08127e-13 0)
(-8.02831e-14 -2.56221e-13 0)
(-6.70752e-14 -2.47109e-13 0)
(-2.29675e-14 -1.69723e-13 0)
(-1.21053e-13 -6.62483e-14 0)
(-1.54192e-13 4.36847e-14 0)
(-4.57722e-14 1.51636e-13 0)
(-1.08593e-13 1.27555e-13 0)
(-7.62444e-14 1.85965e-13 0)
(-6.4945e-14 1.402e-13 0)
(-3.18069e-14 9.73107e-14 0)
(7.02882e-14 2.89272e-14 0)
(3.25569e-14 8.93556e-15 0)
(-1.96916e-14 -8.88796e-14 0)
(-3.43682e-14 -5.81117e-14 0)
(-7.08579e-14 -6.52874e-14 0)
(-9.90522e-14 -1.24758e-13 0)
(-7.83459e-14 -9.28037e-14 0)
(-9.39634e-14 -2.64979e-14 0)
(1.19051e-13 -2.35114e-13 0)
(1.67491e-15 -2.71875e-13 0)
(-4.24206e-14 -1.93588e-13 0)
(6.67759e-14 -1.26114e-13 0)
(1.66473e-13 -4.8383e-14 0)
(1.61987e-13 -1.38939e-13 0)
(1.82956e-13 -1.66947e-13 0)
(1.21772e-13 -1.62087e-13 0)
(-6.62093e-14 -1.36827e-13 0)
(-1.49175e-13 -2.45835e-13 0)
(-3.13995e-14 -2.38975e-13 0)
(4.95588e-15 -2.98645e-13 0)
(-9.97008e-14 -2.89278e-13 0)
(-4.53907e-14 -2.40735e-13 0)
(-1.18555e-14 -3.18098e-13 0)
(-1.14902e-13 -2.38728e-13 0)
(-1.09279e-13 -2.28067e-13 0)
(-4.4599e-14 -2.23798e-13 0)
(6.57495e-14 -1.96303e-13 0)
(1.03913e-14 -2.51907e-13 0)
(-7.39646e-14 -2.95032e-13 0)
(6.6363e-14 -2.59105e-13 0)
(1.0669e-13 -2.43415e-13 0)
(-2.40961e-14 -3.023e-13 0)
(-1.26683e-14 -3.16542e-13 0)
(3.39642e-14 -2.36167e-13 0)
(9.98819e-14 -2.77041e-13 0)
(1.31228e-13 -2.78616e-13 0)
(3.22168e-14 -3.51743e-13 0)
(1.27896e-13 -3.44666e-13 0)
(2.4562e-13 -2.98935e-13 0)
(1.51582e-13 -2.91654e-13 0)
(4.97962e-14 -2.0338e-13 0)
(-1.01838e-13 -2.3447e-13 0)
(-1.89439e-13 -3.10233e-13 0)
(-6.95111e-14 -3.23833e-13 0)
(-3.40739e-14 -2.06257e-13 0)
(-2.91554e-14 -1.6476e-13 0)
(2.71894e-14 -1.58481e-13 0)
(-3.12305e-15 -1.98426e-13 0)
(-7.17989e-14 -1.78025e-13 0)
(-4.08025e-14 -1.36333e-13 0)
(-1.26929e-13 -1.63201e-13 0)
(-7.89576e-14 -1.59309e-13 0)
(-3.51182e-14 -1.69846e-13 0)
(3.41632e-14 -1.81172e-13 0)
(1.60072e-13 -1.46249e-13 0)
(1.41658e-13 -1.28208e-13 0)
(7.89055e-14 -9.95242e-14 0)
(1.33254e-14 -1.22564e-13 0)
(-4.82685e-14 -1.1023e-13 0)
(-2.78156e-14 -2.36826e-13 0)
(1.533e-14 -1.23651e-13 0)
(3.89385e-14 -1.79537e-13 0)
(1.06575e-13 -2.42575e-13 0)
(8.38807e-14 -2.35569e-13 0)
(2.27579e-14 -2.47397e-13 0)
(-3.41231e-14 -2.00783e-13 0)
(-1.90024e-13 -1.35769e-13 0)
(-1.21398e-13 -1.82039e-13 0)
(-1.4071e-13 -1.97277e-13 0)
(-1.3264e-13 -2.19893e-13 0)
(-6.6939e-14 -2.01192e-13 0)
(-1.52976e-15 -1.64782e-13 0)
(8.94786e-14 -1.51006e-13 0)
(-1.32579e-14 -1.19335e-13 0)
(1.14776e-15 -1.47458e-13 0)
(6.18924e-14 -1.90315e-13 0)
(-4.011e-14 -1.66441e-13 0)
(2.23481e-14 -1.85107e-13 0)
(9.56202e-14 -2.80094e-13 0)
(5.59588e-14 -3.28544e-13 0)
(2.6524e-14 -4.04219e-13 0)
(-8.98926e-15 -3.68078e-13 0)
(4.11845e-14 -3.18112e-13 0)
(1.08958e-13 -3.16209e-13 0)
(9.21979e-14 -2.91801e-13 0)
(1.45326e-13 -2.2554e-13 0)
(9.30621e-14 -2.47595e-13 0)
(3.01273e-14 -2.7029e-13 0)
(3.60408e-14 -1.99485e-13 0)
(7.74525e-15 -2.65005e-13 0)
(-2.85585e-14 -1.88604e-13 0)
(-5.51154e-14 -2.16638e-13 0)
(-4.32284e-14 -3.4516e-13 0)
(-7.17697e-14 -4.13476e-13 0)
(-2.57093e-14 -3.96982e-13 0)
(4.93863e-14 -3.88295e-13 0)
(4.46391e-14 -4.17132e-13 0)
(3.48401e-15 -3.84054e-13 0)
(-7.27065e-14 -3.14841e-13 0)
(-1.4069e-13 -3.77048e-13 0)
(-1.5585e-13 -3.04726e-13 0)
(-1.70304e-13 -2.78189e-13 0)
(-7.96781e-14 -3.31133e-13 0)
(-1.97786e-14 -2.87627e-13 0)
(-9.85446e-14 -2.34582e-13 0)
(-1.24478e-14 -2.68694e-13 0)
(5.87784e-14 -3.72249e-13 0)
(8.97942e-14 -3.2952e-13 0)
(8.00284e-15 -3.54677e-13 0)
(-6.05521e-14 -3.62547e-13 0)
(8.10381e-15 -3.3975e-13 0)
(1.33758e-13 -3.15882e-13 0)
(8.42517e-14 -2.69867e-13 0)
(-2.62709e-15 -1.3901e-13 0)
(3.01519e-14 -1.14302e-13 0)
(-3.26674e-14 -6.02424e-14 0)
(-1.02904e-13 -1.35565e-13 0)
(-1.62542e-14 -3.5492e-13 0)
(-9.53587e-14 -3.72653e-13 0)
(-2.19358e-14 -3.07967e-13 0)
(8.05102e-14 -3.47491e-13 0)
(4.47264e-14 -4.21325e-13 0)
(8.56133e-15 -4.08002e-13 0)
(-8.83218e-14 -3.55131e-13 0)
(-4.20733e-14 -3.07211e-13 0)
(6.11002e-14 -4.03106e-13 0)
(4.07577e-14 -3.98148e-13 0)
(2.20423e-14 -3.95114e-13 0)
(8.43824e-14 -3.5431e-13 0)
(1.15827e-13 -2.89855e-13 0)
(-5.60195e-14 -2.95078e-13 0)
(-1.98093e-13 -1.9193e-13 0)
(-1.82076e-13 -8.73701e-14 0)
(-1.3041e-13 -1.37366e-13 0)
(1.74705e-14 -1.43295e-13 0)
(8.37023e-14 -4.29143e-14 0)
(8.62038e-15 -1.01124e-13 0)
(4.62351e-14 -6.84232e-14 0)
(8.5347e-14 -5.90922e-14 0)
(-2.81077e-14 -2.74722e-14 0)
(-6.84339e-14 -1.36642e-13 0)
(-8.96899e-14 -1.48355e-13 0)
(-9.6597e-14 -1.79431e-13 0)
(-1.20701e-13 -2.45558e-13 0)
(-1.31342e-13 -2.67887e-13 0)
(-1.12869e-13 -3.27848e-13 0)
(-1.23268e-13 -3.43573e-13 0)
(-2.14395e-13 -3.32146e-13 0)
(-1.62592e-13 -3.30976e-13 0)
(4.60648e-14 -2.51514e-13 0)
(2.59341e-14 -2.03313e-13 0)
(-5.88986e-15 -1.66807e-13 0)
(4.74025e-14 -1.81716e-13 0)
(-1.54756e-14 -1.34713e-13 0)
(-8.979e-14 -1.67893e-13 0)
(-9.38075e-14 -2.20236e-13 0)
(-1.34885e-13 -2.17944e-13 0)
(-1.14287e-13 -1.70296e-13 0)
(-1.51994e-14 -1.64078e-13 0)
(7.9904e-14 -9.54809e-14 0)
(-2.97823e-15 -1.2568e-13 0)
(-4.40488e-14 -5.13179e-14 0)
(-8.79053e-14 -3.99225e-14 0)
(-1.0016e-13 -8.51811e-14 0)
(-1.09204e-13 -4.42709e-14 0)
(-7.04512e-14 -2.39316e-14 0)
(-4.90644e-14 4.00494e-15 0)
(1.45092e-14 -1.03167e-14 0)
(2.03246e-14 -9.12067e-14 0)
(-2.41654e-14 -9.17462e-14 0)
(-9.08513e-14 -8.34177e-14 0)
(-1.01649e-13 -1.16567e-13 0)
(-1.12612e-13 -1.12027e-13 0)
(-5.63001e-14 -1.24702e-13 0)
(2.08532e-14 -4.29577e-14 0)
(4.86283e-14 -2.40336e-13 0)
(4.25687e-14 -3.07114e-13 0)
(5.05783e-14 -1.75807e-13 0)
(1.30347e-13 -1.34865e-13 0)
(1.11847e-13 -1.11072e-13 0)
(1.18328e-13 -1.58052e-13 0)
(1.49944e-13 -1.13343e-13 0)
(4.57024e-14 -1.88391e-13 0)
(-8.09696e-14 -2.37703e-13 0)
(-1.20475e-13 -2.26613e-13 0)
(-3.53949e-14 -1.9451e-13 0)
(-9.35551e-14 -2.70342e-13 0)
(-7.00919e-14 -3.44445e-13 0)
(-3.74677e-14 -2.50558e-13 0)
(-2.53272e-14 -2.78426e-13 0)
(-6.26566e-14 -2.65823e-13 0)
(-1.40644e-13 -2.77335e-13 0)
(-5.10073e-14 -2.43858e-13 0)
(5.01722e-14 -2.55107e-13 0)
(-5.59276e-14 -2.97846e-13 0)
(-6.21418e-14 -2.30007e-13 0)
(2.13664e-14 -2.65077e-13 0)
(4.05919e-14 -3.09694e-13 0)
(1.40304e-14 -2.73225e-13 0)
(5.34873e-14 -2.68766e-13 0)
(5.61941e-14 -2.87113e-13 0)
(2.94644e-14 -2.9752e-13 0)
(4.9198e-14 -3.8319e-13 0)
(6.79939e-14 -4.30632e-13 0)
(1.78453e-13 -3.7271e-13 0)
(2.20949e-13 -4.26388e-13 0)
(1.7414e-13 -3.85567e-13 0)
(4.19477e-14 -4.32746e-13 0)
(-8.50988e-14 -3.72318e-13 0)
(-9.23792e-14 -2.78834e-13 0)
(3.16889e-14 -2.06726e-13 0)
(-1.07355e-14 -1.41844e-13 0)
(-7.64476e-14 -1.82535e-13 0)
(5.7184e-15 -1.94858e-13 0)
(1.70117e-14 -2.79915e-13 0)
(-2.03253e-14 -2.38441e-13 0)
(-8.12112e-14 -2.22493e-13 0)
(-1.53416e-13 -2.2411e-13 0)
(-9.2321e-14 -1.67274e-13 0)
(1.54567e-14 -2.39271e-13 0)
(1.64981e-14 -1.5724e-13 0)
(1.12892e-13 -1.13503e-13 0)
(1.42969e-13 -1.46271e-13 0)
(1.36514e-13 -1.74823e-13 0)
(4.14428e-14 -2.36677e-13 0)
(-8.87962e-14 -2.23497e-13 0)
(-4.87618e-14 -2.06381e-13 0)
(2.81609e-14 -1.85569e-13 0)
(-2.83323e-14 -2.09704e-13 0)
(8.48372e-14 -2.20149e-13 0)
(8.80999e-14 -2.4179e-13 0)
(4.28919e-14 -2.01485e-13 0)
(1.31861e-14 -1.94007e-13 0)
(-1.20435e-13 -1.31742e-13 0)
(-1.64671e-13 -2.02259e-13 0)
(-1.5114e-13 -2.20967e-13 0)
(-1.83973e-13 -1.8364e-13 0)
(-5.6662e-14 -1.83091e-13 0)
(7.97461e-14 -8.48558e-14 0)
(4.79748e-14 -1.56635e-13 0)
(-7.04278e-15 -2.37927e-13 0)
(-2.49147e-14 -2.50112e-13 0)
(-4.39488e-15 -2.4498e-13 0)
(-2.40329e-14 -3.17734e-13 0)
(3.00125e-15 -2.77192e-13 0)
(-2.23119e-14 -3.73625e-13 0)
(-1.21179e-14 -3.91439e-13 0)
(1.32684e-14 -4.01807e-13 0)
(9.54397e-14 -3.65127e-13 0)
(5.45994e-14 -3.22926e-13 0)
(7.17821e-14 -3.57268e-13 0)
(1.61242e-13 -3.59387e-13 0)
(1.64533e-13 -3.19639e-13 0)
(5.83945e-14 -2.93921e-13 0)
(6.4317e-14 -2.57224e-13 0)
(5.52075e-15 -2.24806e-13 0)
(-2.0531e-14 -2.75865e-13 0)
(2.5593e-14 -2.4077e-13 0)
(-1.2793e-13 -1.94774e-13 0)
(-1.47031e-13 -2.96852e-13 0)
(-6.74275e-14 -3.6888e-13 0)
(-4.81747e-14 -3.34641e-13 0)
(-5.099e-15 -3.2769e-13 0)
(1.68452e-14 -3.66656e-13 0)
(4.44138e-14 -4.1868e-13 0)
(-1.96171e-14 -4.05797e-13 0)
(-1.60213e-13 -4.27991e-13 0)
(-1.19146e-13 -3.60635e-13 0)
(-1.09362e-13 -3.82208e-13 0)
(-1.21614e-13 -3.29064e-13 0)
(-2.26141e-14 -3.40726e-13 0)
(-7.16373e-14 -3.47417e-13 0)
(-3.95876e-14 -3.43593e-13 0)
(1.1362e-13 -3.68651e-13 0)
(7.19207e-14 -3.54451e-13 0)
(-2.23767e-14 -3.46922e-13 0)
(1.25861e-14 -3.00113e-13 0)
(1.02338e-15 -2.35035e-13 0)
(6.74177e-14 -3.02665e-13 0)
(2.03758e-13 -2.78935e-13 0)
(1.71607e-13 -1.85276e-13 0)
(8.05716e-14 -9.29645e-14 0)
(-7.54222e-14 -1.63174e-13 0)
(-2.42702e-13 -1.97801e-13 0)
(-1.64651e-13 -2.54162e-13 0)
(-9.25933e-14 -3.49656e-13 0)
(-1.28676e-14 -3.48074e-13 0)
(1.53367e-14 -4.48228e-13 0)
(1.31263e-14 -4.96709e-13 0)
(-6.34568e-15 -4.59305e-13 0)
(4.17489e-14 -4.11827e-13 0)
(2.43349e-14 -3.38007e-13 0)
(8.78925e-15 -3.49354e-13 0)
(1.58584e-14 -3.44573e-13 0)
(5.61329e-14 -3.38779e-13 0)
(1.62778e-13 -2.3481e-13 0)
(9.41942e-14 -2.19904e-13 0)
(-5.76281e-14 -2.67282e-13 0)
(-3.15177e-14 -2.22481e-13 0)
(-8.68908e-14 -1.25172e-13 0)
(-1.81417e-13 -1.09502e-13 0)
(-2.86099e-14 -7.34404e-14 0)
(5.75853e-14 -1.29493e-13 0)
(3.60808e-14 -8.55559e-14 0)
(1.03251e-13 -1.81975e-14 0)
(2.46849e-14 -1.07359e-13 0)
(-1.41831e-13 -1.69174e-13 0)
(-1.34422e-13 -2.8913e-13 0)
(-8.94691e-14 -3.66158e-13 0)
(-1.32211e-13 -3.60314e-13 0)
(-1.47156e-13 -3.44806e-13 0)
(-1.38919e-13 -3.18829e-13 0)
(-1.44978e-13 -3.20934e-13 0)
(-1.21085e-13 -3.27658e-13 0)
(-1.56244e-13 -3.64504e-13 0)
(-8.73682e-14 -2.96238e-13 0)
(3.93428e-14 -3.03083e-13 0)
(-2.35437e-14 -3.72609e-13 0)
(-4.99065e-14 -3.54165e-13 0)
(1.20752e-14 -3.47965e-13 0)
(2.82923e-15 -3.77966e-13 0)
(-5.39374e-14 -2.87155e-13 0)
(-1.05466e-13 -3.25029e-13 0)
(-1.10932e-13 -3.69271e-13 0)
(-2.55461e-14 -3.49881e-13 0)
(3.26431e-14 -2.7999e-13 0)
(-8.40005e-15 -3.02166e-13 0)
(-5.47244e-14 -3.70812e-13 0)
(-7.27746e-15 -3.29067e-13 0)
(-7.66414e-14 -2.44646e-13 0)
(-6.11401e-14 -2.12415e-13 0)
(-6.71108e-15 -2.46112e-13 0)
(-2.7532e-14 -1.96033e-13 0)
(-4.11245e-14 -1.38272e-13 0)
(-2.11987e-15 -1.17601e-13 0)
(-2.13312e-14 -1.39956e-13 0)
(-5.28022e-14 -1.8426e-13 0)
(-9.52234e-14 -1.76473e-13 0)
(-1.05202e-13 -1.6493e-13 0)
(-8.7529e-14 -1.6668e-13 0)
(1.92068e-14 -1.6696e-13 0)
(1.03364e-13 -1.32934e-13 0)
(-2.31813e-14 -2.73422e-13 0)
(8.71143e-14 -2.41038e-13 0)
(9.28772e-14 -2.52998e-13 0)
(1.22005e-13 -2.23181e-13 0)
(1.0331e-13 -1.99266e-13 0)
(1.23949e-13 -2.10562e-13 0)
(1.77584e-13 -2.61612e-13 0)
(6.77644e-15 -3.17421e-13 0)
(-1.26886e-13 -4.01367e-13 0)
(-1.20349e-13 -3.39359e-13 0)
(-4.57757e-14 -2.82997e-13 0)
(-1.23835e-13 -2.62402e-13 0)
(-4.92262e-14 -2.54011e-13 0)
(9.39543e-15 -2.7842e-13 0)
(-4.32891e-14 -3.07967e-13 0)
(-1.18996e-13 -3.55398e-13 0)
(-7.37744e-14 -3.05762e-13 0)
(-4.11985e-14 -2.59789e-13 0)
(-1.50831e-14 -3.33536e-13 0)
(-8.34272e-15 -3.15966e-13 0)
(-3.46221e-14 -2.65209e-13 0)
(1.72234e-14 -2.62462e-13 0)
(9.33901e-14 -2.8894e-13 0)
(2.92588e-14 -2.9654e-13 0)
(3.67778e-15 -2.21793e-13 0)
(7.7674e-14 -3.12648e-13 0)
(4.2077e-14 -2.64001e-13 0)
(-1.8151e-14 -3.1659e-13 0)
(6.24129e-14 -3.05328e-13 0)
(1.51201e-13 -3.2003e-13 0)
(1.93063e-13 -3.43029e-13 0)
(1.2047e-13 -3.36763e-13 0)
(2.26369e-14 -4.30176e-13 0)
(2.55574e-14 -3.7493e-13 0)
(1.32592e-14 -2.99745e-13 0)
(1.05784e-13 -2.51903e-13 0)
(1.82925e-14 -2.08997e-13 0)
(-1.00981e-13 -1.58777e-13 0)
(-7.88622e-14 -1.95426e-13 0)
(-3.69245e-14 -2.98556e-13 0)
(-2.46572e-14 -3.72e-13 0)
(-3.78771e-14 -3.72947e-13 0)
(-7.98359e-14 -3.11154e-13 0)
(-8.35984e-14 -2.1658e-13 0)
(-2.30984e-14 -2.75835e-13 0)
(1.09758e-13 -2.09708e-13 0)
(1.86095e-13 -1.41529e-13 0)
(1.12778e-13 -2.13165e-13 0)
(1.74191e-14 -2.06138e-13 0)
(-5.05047e-14 -2.56192e-13 0)
(-5.20793e-14 -2.77291e-13 0)
(-2.10091e-16 -2.15868e-13 0)
(2.80814e-14 -2.74561e-13 0)
(-2.9008e-14 -2.77413e-13 0)
(5.85626e-14 -2.4655e-13 0)
(1.03608e-13 -2.70759e-13 0)
(5.22854e-14 -1.90845e-13 0)
(1.64077e-14 -2.52134e-13 0)
(-1.62155e-13 -2.99231e-13 0)
(-2.01149e-13 -2.83025e-13 0)
(-1.00907e-13 -2.86405e-13 0)
(-1.01047e-13 -2.16299e-13 0)
(2.14836e-15 -1.55681e-13 0)
(2.28509e-14 -1.58991e-13 0)
(-2.62265e-14 -2.58995e-13 0)
(-8.52356e-14 -2.74229e-13 0)
(-2.96828e-15 -2.61773e-13 0)
(-4.16342e-15 -2.8245e-13 0)
(-1.25331e-14 -2.74928e-13 0)
(-4.52023e-14 -3.23603e-13 0)
(-4.22684e-14 -3.01237e-13 0)
(4.51911e-14 -3.12456e-13 0)
(8.158e-14 -3.20184e-13 0)
(7.87392e-14 -2.49989e-13 0)
(3.68927e-14 -2.70982e-13 0)
(7.27234e-14 -2.86416e-13 0)
(1.41624e-13 -2.81248e-13 0)
(1.56472e-13 -2.82521e-13 0)
(1.31195e-13 -3.16544e-13 0)
(9.94328e-14 -2.63073e-13 0)
(2.2346e-14 -2.74976e-13 0)
(-2.0973e-14 -2.47909e-13 0)
(4.18185e-15 -2.79422e-13 0)
(-1.73116e-13 -2.97166e-13 0)
(-2.05831e-13 -3.5164e-13 0)
(-4.83997e-14 -3.26341e-13 0)
(9.02188e-16 -3.58702e-13 0)
(1.22001e-14 -3.50455e-13 0)
(-2.53535e-14 -3.6107e-13 0)
(-9.57323e-15 -3.93707e-13 0)
(-3.83474e-14 -4.26041e-13 0)
(-9.20363e-14 -3.28196e-13 0)
(-1.12596e-13 -2.60344e-13 0)
(-1.38961e-13 -2.43247e-13 0)
(-6.56589e-14 -2.56752e-13 0)
(-4.38204e-14 -2.81617e-13 0)
(-7.57252e-14 -2.99227e-13 0)
(-6.39136e-14 -2.78022e-13 0)
(3.12588e-14 -3.62844e-13 0)
(9.8835e-14 -3.63362e-13 0)
(4.57389e-14 -3.02808e-13 0)
(1.62656e-14 -2.0255e-13 0)
(-1.78904e-14 -2.3366e-13 0)
(6.65073e-14 -1.4779e-13 0)
(1.94346e-13 -2.33427e-13 0)
(2.41896e-13 -3.28759e-13 0)
(8.14562e-14 -2.83573e-13 0)
(-1.25607e-13 -2.75009e-13 0)
(-2.23476e-13 -2.51874e-13 0)
(-1.9988e-13 -2.14885e-13 0)
(-1.35344e-13 -3.02157e-13 0)
(-6.07311e-14 -3.40185e-13 0)
(-2.68189e-14 -3.72789e-13 0)
(6.01126e-14 -3.68576e-13 0)
(3.32281e-14 -3.27104e-13 0)
(2.45099e-14 -2.91389e-13 0)
(6.43622e-14 -2.84509e-13 0)
(7.20348e-14 -2.31773e-13 0)
(6.92355e-14 -2.64178e-13 0)
(1.46319e-13 -2.53479e-13 0)
(1.89556e-13 -2.84668e-13 0)
(7.90819e-14 -3.43176e-13 0)
(-3.5415e-14 -3.31736e-13 0)
(-6.56897e-14 -2.76937e-13 0)
(-1.12659e-13 -2.92013e-13 0)
(-1.35023e-13 -2.18565e-13 0)
(1.2947e-15 -1.95049e-13 0)
(5.92603e-14 -2.67453e-13 0)
(8.01331e-14 -2.366e-13 0)
(6.17347e-14 -1.56204e-13 0)
(-6.47027e-14 -2.93626e-13 0)
(-2.29993e-13 -2.44568e-13 0)
(-1.8062e-13 -2.91781e-13 0)
(-1.07396e-13 -2.9963e-13 0)
(-7.11652e-14 -3.17985e-13 0)
(-6.63911e-14 -2.71129e-13 0)
(-1.11421e-13 -1.73948e-13 0)
(-1.26185e-13 -2.02739e-13 0)
(-1.57455e-13 -1.8032e-13 0)
(-2.15579e-13 -1.96921e-13 0)
(-1.76956e-13 -2.12571e-13 0)
(-5.244e-14 -2.96991e-13 0)
(-3.31195e-14 -3.39695e-13 0)
(-2.01743e-14 -3.05889e-13 0)
(2.68977e-14 -3.03412e-13 0)
(4.21935e-14 -3.42192e-13 0)
(-4.09364e-14 -2.9177e-13 0)
(-1.48793e-13 -3.207e-13 0)
(-1.50516e-13 -3.53509e-13 0)
(-3.1565e-15 -4.04437e-13 0)
(9.22906e-14 -3.51274e-13 0)
(1.60563e-14 -2.81074e-13 0)
(-2.31728e-14 -2.88878e-13 0)
(8.11901e-14 -2.74616e-13 0)
(3.19647e-14 -2.41724e-13 0)
(-9.26131e-14 -1.73873e-13 0)
(-5.00154e-14 -1.50384e-13 0)
(2.46132e-14 -1.08997e-13 0)
(-8.11974e-15 -1.24632e-13 0)
(9.46819e-15 -1.42458e-13 0)
(-1.72799e-14 -8.37494e-14 0)
(-1.91258e-14 -8.10241e-14 0)
(-4.2069e-14 -4.49181e-14 0)
(-1.27064e-13 -4.86153e-14 0)
(-1.13295e-13 -1.00261e-13 0)
(-1.27513e-14 -5.50436e-14 0)
(4.66925e-14 -1.34315e-13 0)