/*--------------------------------*- C++ -*----------------------------------*\
  =========                 |
  \\      /  F ield         | OpenFOAM: The Open Source CFD Toolbox
   \\    /   O peration     | Website:  https://openfoam.org
    \\  /    A nd           | Version:  13
     \\/     M anipulation  |
\*---------------------------------------------------------------------------*/
FoamFile
{
    format      ascii;
    class       volVectorField;
    location    "0.001";
    object      U;
}
// * * * * * * * * * * * * * * * * * * * * * * * * * * * * * * * * * * * * * //

dimensions      [0 1 -1 0 0 0 0];

internalField   nonuniform List<vector> 
33333
(
(-3.85567e-14 -1.59751e-13 0)
(-1.32201e-13 -3.11461e-13 0)
(-6.08107e-14 -2.79258e-13 0)
(2.08241e-14 -2.34139e-13 0)
(4.56899e-14 -2.59303e-13 0)
(-9.49306e-15 -2.76622e-13 0)
(-5.95543e-14 -2.05358e-13 0)
(-6.73638e-15 -1.36108e-13 0)
(1.81955e-14 -1.70813e-13 0)
(-1.53275e-13 -2.09875e-13 0)
(-6.02407e-14 -1.4035e-13 0)
(-2.6483e-14 -2.33104e-13 0)
(-1.99454e-14 -1.75315e-13 0)
(3.33295e-14 -1.69669e-13 0)
(1.0278e-13 -6.11436e-14 0)
(8.66815e-14 -8.36201e-14 0)
(5.84878e-14 1.87504e-14 0)
(5.38257e-14 -3.99192e-14 0)
(5.60052e-14 -1.50198e-13 0)
(1.24798e-13 -1.47168e-13 0)
(4.56132e-14 -2.56271e-13 0)
(-6.69275e-15 -2.1311e-13 0)
(-6.19715e-14 -2.40269e-13 0)
(9.2941e-15 -1.13398e-13 0)
(3.10062e-14 -1.20982e-13 0)
(-1.82359e-13 -1.00921e-13 0)
(-2.58434e-13 -1.84689e-13 0)
(-1.42681e-13 -6.52307e-14 0)
(8.59282e-14 -1.31473e-13 0)
(1.5711e-13 -1.68062e-13 0)
(8.73046e-14 -2.7813e-13 0)
(-1.884e-14 -1.93969e-13 0)
(3.90243e-14 -8.17878e-14 0)
(1.4385e-13 -2.44321e-13 0)
(8.55111e-14 -3.81732e-13 0)
(1.18861e-13 -3.29087e-13 0)
(1.50596e-13 -3.72709e-13 0)
(1.73733e-13 -3.23264e-13 0)
(5.83435e-14 -2.70561e-13 0)
(8.317e-14 -1.14437e-13 0)
(1.08424e-13 -1.37257e-13 0)
(-1.03013e-14 -1.61283e-13 0)
(9.61445e-14 -1.36629e-13 0)
(9.68769e-14 -2.04041e-13 0)
(8.71191e-14 -1.83464e-13 0)
(1.30739e-13 -2.66541e-13 0)
(4.59952e-14 -2.66608e-13 0)
(-1.63882e-14 -3.36297e-13 0)
(7.16331e-14 -3.03627e-13 0)
(5.86997e-14 -2.8917e-13 0)
(6.10445e-14 -3.05845e-13 0)
(4.76095e-14 -2.57102e-13 0)
(1.64958e-13 -1.29336e-13 0)
(1.6333e-13 -1.87813e-13 0)
(1.00915e-13 -1.74886e-13 0)
(6.61871e-14 -2.33189e-13 0)
(-2.6268e-14 -1.79957e-13 0)
(-5.38362e-15 -1.86431e-13 0)
(7.30702e-14 -2.21774e-13 0)
(3.4499e-14 -2.65342e-13 0)
(6.01092e-14 -2.39606e-13 0)
(3.32617e-14 -2.47705e-13 0)
(-2.62174e-14 -1.92089e-13 0)
(-6.32049e-14 -2.23765e-13 0)
(-1.18877e-13 -2.19964e-13 0)
(-1.6732e-13 -2.27612e-13 0)
(-4.24575e-14 -1.84315e-13 0)
(-5.37079e-14 -9.36655e-14 0)
(-1.34706e-13 -9.67322e-15 0)
(-8.40357e-15 -1.22924e-14 0)
(6.81863e-14 -1.41748e-13 0)
(-1.59962e-14 -1.14974e-13 0)
(2.41641e-14 -1.31873e-13 0)
(-4.91734e-14 -1.34163e-13 0)
(-4.68353e-14 -9.43786e-14 0)
(-1.36235e-13 -1.4877e-13 0)
(-7.64168e-14 -6.90938e-14 0)
(-3.43653e-14 -8.70012e-14 0)
(-1.33928e-13 -1.17601e-13 0)
(-1.98647e-13 -1.71996e-13 0)
(-1.86035e-13 -1.94843e-13 0)
(-1.75055e-13 -1.34419e-13 0)
(-1.85775e-13 -1.78877e-13 0)
(-1.36641e-13 -1.79168e-13 0)
(-8.41901e-14 -1.9341e-13 0)
(-4.19792e-14 -1.70641e-13 0)
(5.20272e-15 -1.69969e-13 0)
(8.56435e-14 -2.39821e-13 0)
(6.71387e-14 -1.80842e-13 0)
(7.77381e-14 -1.52813e-13 0)
(1.02865e-14 -1.76131e-13 0)
(-3.81397e-14 -1.48778e-13 0)
(-1.439e-13 -1.64917e-13 0)
(-1.88334e-13 -1.89145e-13 0)
(-1.17819e-13 -2.2335e-13 0)
(-2.31593e-14 -2.14698e-13 0)
(2.72086e-14 -2.09473e-13 0)
(-4.80647e-16 -2.03145e-13 0)
(1.65416e-13 -8.3743e-14 0)
(1.44376e-13 -1.29655e-13 0)
(5.60107e-14 -1.50388e-13 0)
(-1.16844e-14 -1.99979e-13 0)
(2.15234e-15 -1.77052e-13 0)
(4.29072e-14 -2.26688e-13 0)
(-3.12361e-14 -2.26468e-13 0)
(-9.30344e-14 -2.00708e-13 0)
(-8.29115e-14 -1.45433e-13 0)
(-4.30835e-14 -2.03609e-13 0)
(-8.63011e-14 -1.91092e-13 0)
(-4.23789e-14 -1.64352e-13 0)
(-1.37286e-14 -1.53897e-13 0)
(-4.00679e-14 -1.41115e-13 0)
(-1.2377e-14 -1.30533e-13 0)
(-3.85709e-14 -1.34556e-13 0)
(1.21136e-15 -1.18763e-13 0)
(-3.33581e-14 -1.84771e-13 0)
(-7.78561e-14 -2.39402e-13 0)
(-3.35412e-14 -2.76802e-13 0)
(7.88302e-15 -2.90644e-13 0)
(5.90567e-14 -3.1829e-13 0)
(6.72354e-14 -2.42315e-13 0)
(9.4135e-14 -1.76323e-13 0)
(1.11955e-13 -9.56578e-14 0)
(1.20158e-13 -5.19125e-14 0)
(6.93923e-14 -1.09998e-13 0)
(7.33604e-15 -2.06781e-13 0)
(2.1425e-14 -2.88211e-13 0)
(1.77197e-14 -3.00329e-13 0)
(-6.74216e-16 -3.06142e-13 0)
(4.07171e-14 -3.24535e-13 0)
(4.50999e-14 -3.06931e-13 0)
(6.96364e-14 -2.45429e-13 0)
(2.2693e-14 -2.53022e-13 0)
(-1.63065e-14 -2.34838e-13 0)
(-7.21557e-14 -1.81562e-13 0)
(-4.87935e-14 -2.30677e-13 0)
(-3.78171e-14 -2.16076e-13 0)
(-8.78712e-14 -2.61565e-13 0)
(-6.22685e-14 -2.59962e-13 0)
(-1.70794e-14 -2.23357e-13 0)
(-4.36366e-14 -2.75891e-13 0)
(6.43172e-15 -2.76201e-13 0)
(6.6457e-14 -2.75601e-13 0)
(8.61779e-14 -2.31888e-13 0)
(5.30961e-14 -2.17729e-13 0)
(5.21496e-14 -1.82874e-13 0)
(2.80605e-14 -1.77458e-13 0)
(1.04044e-15 -1.8359e-13 0)
(-7.07681e-14 -1.13682e-13 0)
(-2.84142e-14 -1.54774e-13 0)
(1.72053e-15 -1.66372e-13 0)
(-5.76165e-14 -1.85772e-13 0)
(-2.34282e-14 -1.55107e-13 0)
(6.63784e-14 -8.26867e-14 0)
(3.47027e-14 -7.83027e-14 0)
(3.53162e-14 -6.45014e-14 0)
(7.86699e-14 -6.25762e-14 0)
(-8.14182e-14 -1.18477e-13 0)
(-1.38996e-13 -1.66329e-13 0)
(-1.34101e-13 -2.11792e-13 0)
(2.68239e-14 -1.2255e-13 0)
(1.47931e-13 -2.38018e-13 0)
(1.10442e-13 -2.95439e-13 0)
(1.13546e-13 -1.75532e-13 0)
(2.73178e-14 -8.15929e-14 0)
(1.88344e-14 -1.54599e-13 0)
(-3.9253e-14 -2.20387e-13 0)
(-8.54938e-14 -2.82218e-13 0)
(-1.24679e-13 -3.40843e-13 0)
(-5.88991e-14 -2.10868e-13 0)
(3.71036e-15 -1.91525e-13 0)
(4.21892e-14 -2.76437e-13 0)
(-6.71414e-15 -2.65803e-13 0)
(-1.15954e-14 -1.64172e-13 0)
(3.53019e-14 -9.02146e-14 0)
(4.3179e-14 -1.62585e-13 0)
(-3.79671e-14 -1.86208e-13 0)
(-6.92368e-14 -1.08275e-13 0)
(-4.40651e-14 -1.14899e-13 0)
(-5.46703e-16 -1.59649e-13 0)
(2.08519e-14 -1.24048e-13 0)
(5.32076e-14 -6.41015e-14 0)
(1.60327e-13 -1.04228e-13 0)
(1.60207e-13 -5.43638e-14 0)
(7.41329e-14 -7.01587e-14 0)
(2.50942e-14 -1.19644e-13 0)
(5.03338e-14 -1.54663e-13 0)
(-1.51503e-15 -2.3591e-13 0)
(-1.74357e-15 -2.57231e-13 0)
(-4.35635e-14 -2.2884e-13 0)
(-3.42486e-14 -2.2722e-13 0)
(-6.46715e-14 -3.39052e-13 0)
(-1.19731e-13 -3.34207e-13 0)
(-1.70588e-13 -1.80982e-13 0)
(-1.93527e-13 -1.24397e-13 0)
(3.00998e-15 -1.94842e-13 0)
(9.69408e-14 -3.45746e-13 0)
(1.9067e-14 -3.02954e-13 0)
(1.07695e-14 -2.72531e-13 0)
(-2.74963e-14 -2.78019e-13 0)
(5.56593e-14 -3.0157e-13 0)
(1.69272e-13 -3.67221e-13 0)
(2.07159e-13 -3.61878e-13 0)
(1.62705e-13 -3.02135e-13 0)
(2.18317e-13 -3.07497e-13 0)
(1.3462e-13 -2.52413e-13 0)
(7.21464e-14 -1.90986e-13 0)
(5.19097e-14 -2.33142e-13 0)
(4.26773e-14 -2.58664e-13 0)
(1.69163e-13 -2.89404e-13 0)
(1.38079e-13 -3.18914e-13 0)
(8.57612e-14 -2.16007e-13 0)
(9.38424e-14 -1.98675e-13 0)
(1.17243e-14 -2.52459e-13 0)
(-4.79303e-14 -2.42511e-13 0)
(-7.45789e-15 -2.56403e-13 0)
(5.04183e-14 -3.22728e-13 0)
(1.48616e-13 -3.04302e-13 0)
(1.80756e-13 -1.57589e-13 0)
(1.18871e-13 -9.75688e-14 0)
(8.58746e-14 -1.85621e-13 0)
(1.35206e-13 -2.37615e-13 0)
(6.15493e-14 -2.13379e-13 0)
(-7.7659e-14 -2.5048e-13 0)
(-1.82625e-14 -2.0394e-13 0)
(1.09045e-13 -2.0727e-13 0)
(6.71975e-14 -2.19326e-13 0)
(1.16879e-13 -2.57923e-13 0)
(5.16127e-14 -2.33644e-13 0)
(-7.26758e-14 -2.47541e-13 0)
(-1.40077e-13 -3.26014e-13 0)
(-2.07846e-13 -3.40939e-13 0)
(-1.67902e-13 -2.20706e-13 0)
(-5.94482e-14 -2.50118e-13 0)
(-1.98008e-14 -2.68044e-13 0)
(-1.08533e-13 -1.93216e-13 0)
(-8.28446e-14 -1.03228e-13 0)
(-3.15765e-14 -2.29394e-13 0)
(-2.1364e-14 -3.01748e-13 0)
(-5.44533e-14 -2.99142e-13 0)
(2.0138e-14 -3.32997e-13 0)
(1.16544e-15 -2.66354e-13 0)
(-7.93931e-14 -2.33523e-13 0)
(-7.31087e-14 -2.0713e-13 0)
(-1.33225e-13 -2.63002e-13 0)
(-1.91558e-13 -3.02268e-13 0)
(-2.37273e-13 -3.75082e-13 0)
(-2.30861e-13 -3.15254e-13 0)
(-1.91108e-13 -3.18e-13 0)
(-1.86879e-13 -4.42198e-13 0)
(-1.47866e-13 -4.25034e-13 0)
(-1.14632e-13 -4.26352e-13 0)
(-5.67126e-14 -4.09494e-13 0)
(-6.65282e-14 -4.23192e-13 0)
(2.40372e-14 -4.0737e-13 0)
(9.17764e-14 -3.93368e-13 0)
(1.10764e-13 -3.97803e-13 0)
(1.03864e-13 -3.66414e-13 0)
(-5.82765e-14 -4.16323e-13 0)
(-1.68174e-13 -3.70109e-13 0)
(-2.13981e-13 -3.40584e-13 0)
(-1.55969e-13 -2.96189e-13 0)
(-5.9181e-14 -3.37767e-13 0)
(1.99174e-14 -3.00497e-13 0)
(1.07873e-13 -2.78932e-13 0)
(2.1789e-13 -2.41638e-13 0)
(2.06749e-13 -2.24958e-13 0)
(1.07138e-13 -2.58887e-13 0)
(1.38849e-14 -2.22554e-13 0)
(-3.38306e-14 -2.04059e-13 0)
(-3.45162e-14 -2.74001e-13 0)
(-1.01484e-13 -3.39375e-13 0)
(-1.41566e-13 -3.38849e-13 0)
(-1.35517e-13 -3.27612e-13 0)
(-2.43375e-14 -3.2546e-13 0)
(-2.90011e-14 -3.20079e-13 0)
(-3.24763e-14 -3.09923e-13 0)
(-5.57525e-16 -3.33739e-13 0)
(-1.1461e-14 -2.36612e-13 0)
(-2.85153e-14 -3.19292e-13 0)
(-4.92199e-14 -2.93156e-13 0)
(-2.58856e-14 -2.74597e-13 0)
(-8.0744e-14 -3.30891e-13 0)
(-1.46385e-13 -3.83753e-13 0)
(-8.52271e-14 -3.77708e-13 0)
(-1.33477e-14 -3.21087e-13 0)
(5.80154e-14 -2.90499e-13 0)
(1.39468e-13 -3.32738e-13 0)
(2.15458e-13 -3.40813e-13 0)
(2.09825e-13 -3.40816e-13 0)
(1.68301e-13 -2.77586e-13 0)
(8.61171e-14 -2.20648e-13 0)
(-1.33333e-14 -2.68746e-13 0)
(-3.00454e-14 -2.01271e-13 0)
(-6.76651e-14 -2.51856e-13 0)
(-9.849e-14 -2.69083e-13 0)
(-4.9391e-14 -3.35022e-13 0)
(6.96229e-14 -3.17262e-13 0)
(1.63257e-13 -2.6719e-13 0)
(9.86884e-14 -2.48579e-13 0)
(9.42288e-15 -3.11027e-13 0)
(-1.17975e-13 -4.002e-13 0)
(-9.54336e-14 -3.77047e-13 0)
(-1.20159e-13 -3.99574e-13 0)
(-1.85717e-13 -3.71506e-13 0)
(-1.19227e-13 -4.13956e-13 0)
(-2.89306e-14 -3.96902e-13 0)
(3.60282e-14 -4.18978e-13 0)
(7.16436e-14 -4.18552e-13 0)
(1.30373e-13 -3.92978e-13 0)
(1.32906e-13 -3.77322e-13 0)
(6.8764e-14 -3.57512e-13 0)
(7.47953e-14 -4.01145e-13 0)
(1.25487e-15 -3.4962e-13 0)
(2.10765e-14 -3.11408e-13 0)
(-4.07973e-14 -3.18187e-13 0)
(9.24419e-16 -2.74093e-13 0)
(-4.4754e-14 -3.08544e-13 0)
(-1.03744e-13 -3.52259e-13 0)
(-4.65457e-15 -3.12848e-13 0)
(7.56757e-14 -2.38308e-13 0)
(7.19284e-14 -2.72434e-13 0)
(4.39339e-14 -2.1314e-13 0)
(4.95027e-14 -2.14106e-13 0)
(-6.01927e-14 -2.31794e-13 0)
(-1.73969e-13 -2.03508e-13 0)
(-1.01769e-13 -2.5749e-13 0)
(4.99623e-14 -2.34462e-13 0)
(1.15259e-14 -2.88047e-13 0)
(1.03562e-13 -3.70575e-13 0)
(1.96729e-13 -3.57775e-13 0)
(7.64442e-14 -3.06259e-13 0)
(-7.19152e-14 -3.02176e-13 0)
(-4.07108e-14 -2.64371e-13 0)
(-6.39735e-14 -3.6685e-13 0)
(-2.38117e-14 -3.67796e-13 0)
(6.83773e-14 -2.57427e-13 0)
(-8.66435e-14 -2.06718e-13 0)
(-5.4395e-14 -2.257e-13 0)
(3.46582e-14 -2.19035e-13 0)
(8.68846e-14 -1.76735e-13 0)
(7.62873e-14 -1.5177e-13 0)
(2.47931e-14 -1.85815e-13 0)
(1.15061e-14 -1.69306e-13 0)
(1.65041e-14 -1.58086e-13 0)
(-6.60618e-14 -1.88899e-13 0)
(-3.28941e-14 -1.41598e-13 0)
(2.96447e-14 -2.007e-13 0)
(6.71057e-14 -1.82787e-13 0)
(1.5158e-13 -2.14049e-13 0)
(1.12976e-13 -2.82403e-13 0)
(1.06399e-14 -3.00309e-13 0)
(-1.6199e-15 -3.19618e-13 0)
(2.02746e-15 -3.00672e-13 0)
(-4.78425e-14 -3.43491e-13 0)
(-1.16215e-15 -3.0174e-13 0)
(-2.90837e-14 -3.08652e-13 0)
(-9.55136e-14 -4.02699e-13 0)
(-8.05928e-14 -4.29679e-13 0)
(-3.822e-14 -4.12295e-13 0)
(-9.12541e-14 -3.73415e-13 0)
(-1.38632e-13 -3.36646e-13 0)
(-7.61084e-14 -2.96286e-13 0)
(-1.33176e-14 -3.82081e-13 0)
(9.23443e-14 -3.42892e-13 0)
(-5.8116e-15 -2.97316e-13 0)
(1.21814e-14 -3.45173e-13 0)
(5.13124e-14 -2.7313e-13 0)
(1.28237e-13 -3.04563e-13 0)
(2.69461e-13 -3.3228e-13 0)
(2.0288e-13 -3.05546e-13 0)
(1.58467e-13 -2.47325e-13 0)
(1.37947e-13 -3.0515e-13 0)
(1.17237e-13 -3.52443e-13 0)
(8.3422e-14 -2.89419e-13 0)
(1.0194e-14 -2.65656e-13 0)
(5.52038e-14 -2.57148e-13 0)
(1.80108e-13 -3.57081e-13 0)
(2.08738e-13 -3.28015e-13 0)
(3.7657e-14 -3.83409e-13 0)
(-1.9021e-14 -4.41039e-13 0)
(2.23045e-14 -3.46608e-13 0)
(-3.01624e-14 -1.93973e-13 0)
(1.37017e-14 -1.81933e-13 0)
(1.96717e-13 -2.30375e-13 0)
(2.31796e-13 -2.84301e-13 0)
(1.29751e-13 -2.48163e-13 0)
(2.16608e-14 -2.40058e-13 0)
(4.57856e-14 -3.57492e-13 0)
(4.88038e-14 -3.76109e-13 0)
(-1.41405e-14 -3.53499e-13 0)
(4.76301e-14 -2.83889e-13 0)
(8.32443e-14 -2.77977e-13 0)
(5.86279e-14 -2.75696e-13 0)
(5.28261e-14 -2.37476e-13 0)
(5.98234e-14 -3.4838e-13 0)
(-7.38669e-14 -3.04044e-13 0)
(-1.66913e-13 -3.28233e-13 0)
(-9.64702e-14 -2.95979e-13 0)
(-1.25105e-13 -2.32543e-13 0)
(-1.82332e-13 -2.64265e-13 0)
(-3.64224e-14 -3.3165e-13 0)
(1.11541e-16 -3.81014e-13 0)
(-5.81858e-14 -2.53454e-13 0)
(-1.56765e-13 -3.29255e-13 0)
(-7.63459e-14 -3.62925e-13 0)
(-2.44426e-14 -3.57943e-13 0)
(3.49353e-14 -2.77916e-13 0)
(2.67906e-14 -3.78221e-13 0)
(-5.56805e-14 -3.04684e-13 0)
(-1.19556e-13 -3.8064e-13 0)
(-1.41833e-13 -3.93904e-13 0)
(-2.10502e-13 -3.79338e-13 0)
(-2.18629e-13 -3.71649e-13 0)
(-1.959e-13 -4.08336e-13 0)
(-3.117e-13 -4.1349e-13 0)
(-2.54598e-13 -4.7675e-13 0)
(-1.11704e-13 -5.42278e-13 0)
(-6.7357e-14 -5.03553e-13 0)
(-1.13323e-13 -4.93201e-13 0)
(-4.56817e-14 -5.12571e-13 0)
(7.54971e-14 -4.54927e-13 0)
(1.12342e-13 -4.71065e-13 0)
(6.75931e-14 -4.25296e-13 0)
(1.8555e-14 -4.76788e-13 0)
(-2.83222e-14 -4.91845e-13 0)
(-4.91579e-14 -4.39064e-13 0)
(-1.23207e-13 -3.24404e-13 0)
(-8.68102e-14 -2.12693e-13 0)
(-6.41255e-14 -2.19028e-13 0)
(3.55228e-14 -2.11465e-13 0)
(1.20472e-13 -1.2675e-13 0)
(1.85689e-13 -1.61765e-13 0)
(1.69236e-13 -2.05949e-13 0)
(1.41104e-13 -2.04035e-13 0)
(5.5168e-14 -1.72399e-13 0)
(-7.19185e-14 -1.7427e-13 0)
(-1.40123e-13 -2.44427e-13 0)
(-1.25986e-13 -2.70179e-13 0)
(-1.27932e-13 -2.58207e-13 0)
(-1.14225e-13 -1.60783e-13 0)
(-4.578e-14 -2.09232e-13 0)
(-4.12119e-14 -2.39958e-13 0)
(-1.61481e-14 -2.90606e-13 0)
(2.0893e-14 -2.42971e-13 0)
(-2.15604e-14 -3.19426e-13 0)
(-8.01385e-14 -3.26605e-13 0)
(5.05263e-15 -3.57732e-13 0)
(-3.31101e-14 -3.06446e-13 0)
(-1.37834e-13 -3.24795e-13 0)
(-1.08613e-13 -3.69767e-13 0)
(-4.60798e-14 -3.43126e-13 0)
(3.83238e-14 -2.8889e-13 0)
(5.09902e-14 -2.2064e-13 0)
(5.20666e-14 -2.92651e-13 0)
(1.50635e-13 -3.45994e-13 0)
(2.36845e-13 -4.16053e-13 0)
(2.61614e-13 -3.2762e-13 0)
(1.14995e-13 -3.45024e-13 0)
(1.95634e-14 -2.81342e-13 0)
(3.09607e-14 -2.21627e-13 0)
(-9.04089e-14 -2.44143e-13 0)
(-1.51807e-13 -1.85689e-13 0)
(-8.51374e-14 -2.16536e-13 0)
(8.59305e-14 -2.3769e-13 0)
(1.44142e-13 -2.47556e-13 0)
(7.17993e-14 -2.42214e-13 0)
(-9.98221e-14 -3.2245e-13 0)
(-1.26968e-13 -4.12685e-13 0)
(-9.92223e-14 -3.2282e-13 0)
(-1.6184e-13 -3.89935e-13 0)
(-1.58696e-13 -4.1378e-13 0)
(-9.96475e-14 -4.07687e-13 0)
(-3.2929e-14 -3.67732e-13 0)
(-1.10131e-14 -3.93896e-13 0)
(7.61012e-14 -3.61057e-13 0)
(1.46114e-13 -3.25588e-13 0)
(1.44035e-13 -3.16869e-13 0)
(5.78953e-14 -2.90642e-13 0)
(2.77867e-14 -3.46413e-13 0)
(6.40292e-14 -3.91706e-13 0)
(-7.56204e-15 -3.66775e-13 0)
(-1.63054e-14 -3.07246e-13 0)
(-2.0531e-14 -3.34017e-13 0)
(-1.66915e-14 -3.46953e-13 0)
(-5.95954e-14 -2.97716e-13 0)
(-1.18581e-14 -2.29549e-13 0)
(2.92283e-14 -2.63644e-13 0)
(6.00727e-14 -2.49671e-13 0)
(1.11716e-13 -2.71802e-13 0)
(5.63934e-14 -1.99281e-13 0)
(-3.95464e-15 -2.72108e-13 0)
(-1.43459e-13 -2.6303e-13 0)
(-8.56153e-14 -2.46631e-13 0)
(2.19343e-15 -2.59406e-13 0)
(1.23175e-14 -3.3569e-13 0)
(5.03433e-14 -2.93137e-13 0)
(1.20641e-13 -3.37028e-13 0)
(7.231e-14 -3.94244e-13 0)
(2.23255e-14 -3.76023e-13 0)
(4.03645e-14 -3.1611e-13 0)
(1.97829e-15 -3.52407e-13 0)
(1.1748e-14 -2.90794e-13 0)
(1.17472e-13 -3.46607e-13 0)
(6.57293e-15 -2.39075e-13 0)
(-6.33112e-14 -1.69305e-13 0)
(-8.47013e-15 -1.27018e-13 0)
(8.01561e-14 -2.16451e-13 0)
(9.89913e-14 -2.10905e-13 0)
(6.56662e-14 -2.47125e-13 0)
(5.14251e-14 -1.30048e-13 0)
(-7.16052e-14 -1.54507e-13 0)
(-1.6572e-14 -1.95822e-13 0)
(-3.08882e-14 -1.80277e-13 0)
(-1.56411e-14 -2.24537e-13 0)
(7.88584e-14 -2.57632e-13 0)
(4.70144e-14 -3.15996e-13 0)
(2.74141e-14 -3.90259e-13 0)
(3.19703e-14 -3.563e-13 0)
(2.54608e-14 -2.72782e-13 0)
(-1.58726e-14 -3.55878e-13 0)
(-2.13248e-14 -2.98878e-13 0)
(1.40389e-14 -2.96977e-13 0)
(-8.65081e-14 -3.3824e-13 0)
(-7.58666e-14 -3.04138e-13 0)
(-2.73776e-14 -3.04728e-13 0)
(-7.50538e-14 -2.79818e-13 0)
(-1.1832e-13 -3.4735e-13 0)
(-7.82697e-14 -3.18154e-13 0)
(-5.9872e-14 -2.75547e-13 0)
(2.12053e-14 -2.86395e-13 0)
(8.79717e-14 -2.48621e-13 0)
(-3.77743e-14 -2.751e-13 0)
(-1.64242e-14 -2.62737e-13 0)
(9.95239e-14 -2.61059e-13 0)
(9.50439e-14 -2.20309e-13 0)
(1.72008e-13 -3.39438e-13 0)
(2.44696e-13 -3.93441e-13 0)
(1.80405e-13 -3.59248e-13 0)
(9.68544e-14 -3.08709e-13 0)
(1.29151e-13 -2.96074e-13 0)
(1.53234e-13 -2.1322e-13 0)
(8.58199e-14 -1.76626e-13 0)
(3.19983e-14 -1.68504e-13 0)
(9.69047e-14 -2.9993e-13 0)
(1.14541e-13 -4.59027e-13 0)
(-4.39361e-14 -5.08157e-13 0)
(1.96171e-14 -4.73523e-13 0)
(1.71265e-13 -3.87443e-13 0)
(1.36458e-13 -2.72694e-13 0)
(3.75544e-14 -2.02183e-13 0)
(8.3212e-14 -1.59098e-13 0)
(1.60631e-13 -2.72051e-13 0)
(1.67157e-13 -2.8786e-13 0)
(-1.42407e-14 -2.57304e-13 0)
(-7.58334e-14 -3.04252e-13 0)
(-1.78859e-14 -3.15746e-13 0)
(1.06913e-14 -3.84217e-13 0)
(8.09486e-14 -3.58292e-13 0)
(1.39907e-13 -3.51893e-13 0)
(1.0059e-13 -3.13413e-13 0)
(-1.74236e-14 -3.117e-13 0)
(-1.04675e-14 -3.93619e-13 0)
(2.12884e-14 -3.88468e-13 0)
(-1.15974e-13 -2.95682e-13 0)
(-1.24627e-13 -2.56504e-13 0)
(-1.47718e-13 -2.74424e-13 0)
(-1.69307e-13 -2.27201e-13 0)
(-1.17803e-13 -3.12311e-13 0)
(-2.28306e-14 -3.60845e-13 0)
(-9.24807e-14 -3.50402e-13 0)
(-1.55349e-13 -3.30057e-13 0)
(-4.10283e-14 -3.61772e-13 0)
(2.73045e-14 -4.03891e-13 0)
(2.74778e-15 -4.03928e-13 0)
(-3.50196e-14 -4.44852e-13 0)
(-8.24441e-14 -4.12493e-13 0)
(-1.19023e-13 -4.55541e-13 0)
(-1.06361e-13 -4.454e-13 0)
(-1.52146e-13 -4.05471e-13 0)
(-2.09918e-13 -3.39476e-13 0)
(-2.3715e-13 -4.22246e-13 0)
(-2.86309e-13 -4.67642e-13 0)
(-2.97959e-13 -3.64213e-13 0)
(-1.69054e-13 -4.30315e-13 0)
(-9.20814e-14 -3.73944e-13 0)
(-6.94789e-14 -4.10814e-13 0)
(-5.69118e-14 -3.28872e-13 0)
(1.52614e-14 -3.91457e-13 0)
(8.68286e-14 -4.02507e-13 0)
(6.4886e-14 -4.13089e-13 0)
(2.12039e-14 -4.51559e-13 0)
(2.61244e-14 -4.18354e-13 0)
(3.34937e-14 -4.27511e-13 0)
(3.87832e-15 -3.61162e-13 0)
(-3.14957e-14 -2.38972e-13 0)
(-8.35439e-14 -1.80652e-13 0)
(5.60003e-14 -2.10987e-13 0)
(1.45079e-13 -2.09992e-13 0)
(1.33347e-13 -2.0363e-13 0)
(1.67661e-13 -2.11005e-13 0)
(1.58745e-13 -1.57909e-13 0)
(6.16924e-14 -1.91592e-13 0)
(-1.19279e-13 -2.0451e-13 0)
(-1.51675e-13 -2.25199e-13 0)
(-1.19953e-13 -1.7003e-13 0)
(-8.39372e-14 -2.3471e-13 0)
(-7.96259e-14 -1.28074e-13 0)
(-1.12537e-13 -1.45526e-13 0)
(-3.61901e-14 -1.68072e-13 0)
(-3.37651e-14 -1.94206e-13 0)
(-1.83808e-14 -2.95167e-13 0)
(-9.99797e-14 -3.58762e-13 0)
(-5.16913e-14 -3.29763e-13 0)
(-2.02836e-14 -3.7638e-13 0)
(-2.23926e-14 -4.06905e-13 0)
(-1.02742e-13 -3.48554e-13 0)
(-9.53805e-14 -2.16452e-13 0)
(-6.2243e-14 -2.23145e-13 0)
(4.38248e-14 -2.24106e-13 0)
(3.26884e-14 -2.42271e-13 0)
(-6.73338e-15 -2.16899e-13 0)
(7.69846e-14 -3.14677e-13 0)
(2.68763e-13 -3.59106e-13 0)
(2.42219e-13 -3.37875e-13 0)
(1.15914e-13 -3.44762e-13 0)
(8.20464e-14 -2.52303e-13 0)
(1.55444e-14 -3.09182e-13 0)
(-6.23361e-14 -2.36358e-13 0)
(-9.36437e-14 -1.52051e-13 0)
(-1.23676e-13 -1.48982e-13 0)
(-4.12835e-15 -2.28951e-13 0)
(9.82391e-14 -3.34349e-13 0)
(5.15868e-14 -3.50982e-13 0)
(-8.99886e-14 -3.95641e-13 0)
(-8.74462e-14 -3.61318e-13 0)
(-9.71524e-14 -3.68341e-13 0)
(-2.37806e-13 -3.56415e-13 0)
(-2.08916e-13 -4.54449e-13 0)
(-1.33428e-13 -3.88737e-13 0)
(-2.9341e-14 -4.1637e-13 0)
(6.28647e-14 -3.40512e-13 0)
(1.61958e-13 -2.49104e-13 0)
(1.81567e-13 -2.44942e-13 0)
(1.3492e-13 -2.40829e-13 0)
(5.31334e-14 -2.49085e-13 0)
(-3.10948e-14 -2.62334e-13 0)
(5.83898e-17 -3.74218e-13 0)
(6.1305e-14 -3.26232e-13 0)
(1.89766e-14 -2.76167e-13 0)
(-2.86063e-14 -2.64263e-13 0)
(-1.7541e-14 -2.17547e-13 0)
(2.02785e-16 -2.39417e-13 0)
(-7.75527e-15 -1.75444e-13 0)
(2.69505e-15 -2.19529e-13 0)
(5.74913e-14 -1.70204e-13 0)
(9.86171e-14 -2.49399e-13 0)
(3.29521e-14 -2.85583e-13 0)
(-5.93463e-14 -3.47462e-13 0)
(-1.02125e-13 -3.31167e-13 0)
(-5.18051e-14 -2.7656e-13 0)
(-3.32057e-14 -2.84269e-13 0)
(-3.45772e-14 -3.04513e-13 0)
(5.21624e-14 -2.64308e-13 0)
(5.89178e-14 -2.96564e-13 0)
(4.56991e-14 -3.42818e-13 0)
(5.13721e-14 -3.75694e-13 0)
(1.09678e-14 -4.51098e-13 0)
(9.03265e-15 -2.6989e-13 0)
(2.57145e-14 -2.2994e-13 0)
(1.5579e-13 -2.47557e-13 0)
(3.77595e-14 -2.91906e-13 0)
(-1.94047e-14 -2.03758e-13 0)
(8.7563e-15 -1.51953e-13 0)
(2.91047e-14 -1.74935e-13 0)
(6.3e-14 -1.62717e-13 0)
(1.00769e-13 -1.9402e-13 0)
(9.99566e-14 -1.93594e-13 0)
(-7.86353e-14 -2.09076e-13 0)
(-5.04698e-14 -1.59043e-13 0)
(-2.45796e-14 -1.52795e-13 0)
(3.20592e-15 -1.28055e-13 0)
(1.70602e-14 -1.57672e-13 0)
(1.54476e-14 -1.65972e-13 0)
(5.39322e-14 -1.9165e-13 0)
(9.91081e-14 -2.09927e-13 0)
(-8.68052e-15 -1.50731e-13 0)
(-6.65164e-14 -1.95968e-13 0)
(-1.49126e-14 -1.69525e-13 0)
(-3.39919e-15 -2.03984e-13 0)
(-2.1087e-14 -2.66364e-13 0)
(-1.9383e-14 -2.36321e-13 0)
(-8.52767e-14 -2.46768e-13 0)
(-1.05709e-13 -2.77492e-13 0)
(-1.21068e-13 -3.38275e-13 0)
(-6.79645e-14 -3.72839e-13 0)
(-9.88177e-14 -3.9924e-13 0)
(5.87051e-15 -3.30498e-13 0)
(1.27417e-13 -3.40996e-13 0)
(1.27666e-14 -2.78631e-13 0)
(-5.12126e-15 -2.05797e-13 0)
(1.18146e-13 -2.52279e-13 0)
(4.69906e-14 -2.56578e-13 0)
(9.49553e-14 -2.6458e-13 0)
(1.70242e-13 -2.58891e-13 0)
(2.30164e-13 -3.15577e-13 0)
(2.0158e-13 -3.26026e-13 0)
(2.54044e-13 -1.81102e-13 0)
(2.25976e-13 -1.40684e-13 0)
(8.03151e-14 -1.85909e-13 0)
(-1.06214e-13 -2.52376e-13 0)
(-4.97569e-14 -3.20254e-13 0)
(-1.24126e-14 -4.65649e-13 0)
(1.22822e-14 -5.01767e-13 0)
(9.37149e-14 -4.55521e-13 0)
(1.54686e-13 -4.13684e-13 0)
(1.85966e-13 -4.61747e-13 0)
(2.02181e-13 -3.40024e-13 0)
(9.88965e-14 -2.70665e-13 0)
(8.77103e-14 -2.59073e-13 0)
(1.24327e-13 -3.08032e-13 0)
(2.0348e-14 -3.49047e-13 0)
(-3.54561e-14 -2.498e-13 0)
(-6.78364e-14 -2.6609e-13 0)
(-5.32371e-14 -2.70956e-13 0)
(7.93177e-14 -2.96895e-13 0)
(1.13496e-13 -3.58616e-13 0)
(7.17182e-14 -3.6042e-13 0)
(-3.9586e-14 -4.18252e-13 0)
(-5.24972e-14 -3.47401e-13 0)
(7.1345e-14 -3.78774e-13 0)
(4.07595e-15 -3.54487e-13 0)
(-6.2841e-14 -2.80907e-13 0)
(-1.12544e-13 -3.47091e-13 0)
(-2.23389e-13 -3.30667e-13 0)
(-1.61396e-13 -3.87701e-13 0)
(-2.65211e-14 -3.43293e-13 0)
(-8.50995e-14 -3.67263e-13 0)
(-1.56553e-13 -3.05816e-13 0)
(-1.27422e-13 -3.37531e-13 0)
(-4.50399e-14 -3.75294e-13 0)
(-4.11764e-14 -4.9332e-13 0)
(2.78116e-15 -4.37747e-13 0)
(-3.21607e-14 -4.69039e-13 0)
(-1.00191e-13 -4.63756e-13 0)
(-5.45549e-14 -4.36254e-13 0)
(-1.26913e-13 -3.39453e-13 0)
(-2.62803e-13 -2.87903e-13 0)
(-2.63618e-13 -2.54973e-13 0)
(-2.1902e-13 -2.97876e-13 0)
(-2.25583e-13 -2.14884e-13 0)
(-1.55464e-13 -1.88712e-13 0)
(-1.14005e-13 -2.24287e-13 0)
(-4.45165e-14 -2.89578e-13 0)
(-9.33928e-15 -3.0183e-13 0)
(2.4443e-14 -2.25326e-13 0)
(7.97457e-14 -2.74973e-13 0)
(-1.44389e-14 -3.2728e-13 0)
(-1.17902e-14 -3.80913e-13 0)
(1.37283e-14 -3.42229e-13 0)
(2.24888e-14 -3.67767e-13 0)
(7.41022e-14 -3.33524e-13 0)
(4.3556e-14 -3.35878e-13 0)
(-6.05565e-14 -2.76988e-13 0)
(5.01929e-15 -2.77325e-13 0)
(1.41157e-13 -2.90581e-13 0)
(1.88765e-13 -2.50259e-13 0)
(1.74674e-13 -2.51954e-13 0)
(1.37458e-13 -3.07355e-13 0)
(9.53042e-15 -2.61248e-13 0)
(-7.37544e-14 -2.6877e-13 0)
(-8.24279e-14 -1.78003e-13 0)
(-1.39687e-13 -1.54312e-13 0)
(-1.1407e-13 -1.44825e-13 0)
(-5.97411e-14 -2.12968e-13 0)
(-1.10024e-13 -1.77042e-13 0)
(-9.77574e-14 -1.54426e-13 0)
(-1.2852e-13 -1.62839e-13 0)
(-1.13153e-13 -2.27503e-13 0)
(-8.37131e-14 -2.70701e-13 0)
(-5.16118e-14 -3.09732e-13 0)
(-4.18668e-14 -3.34526e-13 0)
(-1.70979e-14 -3.78352e-13 0)
(3.97164e-14 -3.48041e-13 0)
(-2.12001e-14 -2.5301e-13 0)
(-4.57811e-14 -1.65389e-13 0)
(-1.9199e-15 -1.57216e-13 0)
(3.29687e-14 -2.18981e-13 0)
(7.64298e-15 -1.47865e-13 0)
(4.94291e-15 -1.0872e-13 0)
(2.21519e-13 -1.45567e-13 0)
(2.51666e-13 -3.05277e-13 0)
(1.58377e-13 -2.65321e-13 0)
(3.15645e-14 -2.82675e-13 0)
(7.9137e-14 -2.57475e-13 0)
(5.8311e-14 -1.8842e-13 0)
(-7.42056e-14 -1.845e-13 0)
(-1.5246e-13 -1.82089e-13 0)
(-9.87119e-14 -2.56845e-13 0)
(1.43778e-14 -3.14717e-13 0)
(1.14103e-14 -3.22444e-13 0)
(-9.915e-14 -3.44683e-13 0)
(-5.70517e-14 -3.34153e-13 0)
(-1.24077e-13 -3.33996e-13 0)
(-2.63631e-13 -3.64418e-13 0)
(-2.00083e-13 -2.99088e-13 0)
(-7.7961e-14 -2.17263e-13 0)
(1.9167e-14 -2.29379e-13 0)
(1.25554e-13 -1.85628e-13 0)
(1.72099e-13 -1.7003e-13 0)
(1.2073e-13 -2.12886e-13 0)
(1.16239e-13 -2.78676e-13 0)
(5.86559e-14 -2.99572e-13 0)
(-7.61896e-14 -2.79385e-13 0)
(1.31748e-14 -3.11297e-13 0)
(1.01237e-13 -3.05914e-13 0)
(8.32892e-14 -2.86376e-13 0)
(3.60722e-14 -1.5864e-13 0)
(-9.28764e-15 -1.30575e-13 0)
(-3.83998e-14 -1.74347e-13 0)
(-1.85831e-14 -2.5811e-13 0)
(4.979e-14 -2.22762e-13 0)
(5.4785e-14 -2.37628e-13 0)
(-2.38271e-14 -2.62958e-13 0)
(-5.22486e-14 -3.69812e-13 0)
(-4.62856e-14 -3.90041e-13 0)
(-6.19323e-14 -3.44583e-13 0)
(-5.05137e-14 -2.76424e-13 0)
(-6.68264e-14 -3.16458e-13 0)
(3.70581e-16 -3.16239e-13 0)
(5.18936e-14 -2.72096e-13 0)
(5.0638e-14 -2.74819e-13 0)
(3.42577e-14 -3.09401e-13 0)
(-5.28945e-15 -3.52969e-13 0)
(-3.53353e-14 -3.85553e-13 0)
(-4.75658e-15 -1.62928e-13 0)
(4.25208e-14 -1.28279e-13 0)
(8.42842e-14 -7.7699e-14 0)
(4.81248e-14 -1.41197e-13 0)
(7.30782e-14 -1.60909e-13 0)
(3.79909e-14 -1.28993e-13 0)
(6.22541e-14 -4.46846e-14 0)
(7.23264e-14 -9.20305e-14 0)
(2.79031e-14 -1.61564e-13 0)
(5.87369e-14 -2.14735e-13 0)
(-4.0059e-14 -2.32293e-13 0)
(2.65138e-14 -2.1151e-13 0)
(-9.68812e-15 -1.52973e-13 0)
(-3.07564e-14 -1.94447e-13 0)
(4.82482e-14 -1.16966e-13 0)
(6.35051e-14 -8.20369e-14 0)
(-2.97234e-14 -7.23192e-14 0)
(3.58823e-14 -1.34339e-13 0)
(3.90008e-14 -1.88623e-13 0)
(-4.33848e-14 -1.56092e-13 0)
(-6.35066e-14 -2.2111e-13 0)
(-4.81683e-14 -2.48279e-13 0)
(-7.99904e-14 -3.01671e-13 0)
(-2.90492e-14 -2.65555e-13 0)
(-1.07212e-13 -2.96638e-13 0)
(-1.20234e-13 -4.1036e-13 0)
(-1.64392e-13 -4.38736e-13 0)
(-1.48583e-13 -3.80363e-13 0)
(-6.16083e-14 -3.51107e-13 0)
(3.24582e-14 -3.72587e-13 0)
(1.8998e-13 -3.2928e-13 0)
(1.29524e-13 -2.81412e-13 0)
(4.6178e-15 -2.19806e-13 0)
(5.21443e-14 -2.33387e-13 0)
(8.61597e-14 -2.02471e-13 0)
(1.62559e-13 -1.29722e-13 0)
(2.01446e-13 -1.45785e-13 0)
(1.65411e-13 -1.08378e-13 0)
(2.36111e-13 -1.61901e-13 0)
(2.68684e-13 -1.17134e-13 0)
(1.48471e-13 -2.11548e-13 0)
(3.42283e-14 -2.66271e-13 0)
(-5.18942e-14 -2.82308e-13 0)
(-1.3341e-13 -3.13452e-13 0)
(-1.36876e-13 -3.5602e-13 0)
(-3.03177e-14 -3.86015e-13 0)
(1.55709e-13 -4.27796e-13 0)
(1.70352e-13 -5.15178e-13 0)
(1.84536e-13 -5.47324e-13 0)
(2.25426e-13 -5.68608e-13 0)
(1.58881e-13 -4.96289e-13 0)
(1.30053e-13 -4.3816e-13 0)
(8.10024e-14 -3.87998e-13 0)
(-1.41213e-14 -3.99957e-13 0)
(-3.2573e-14 -3.8573e-13 0)
(-2.7315e-14 -3.74146e-13 0)
(1.87178e-14 -3.24767e-13 0)
(3.00127e-14 -2.61766e-13 0)
(7.23512e-14 -2.8282e-13 0)
(5.28386e-14 -3.25853e-13 0)
(-5.61825e-15 -3.0983e-13 0)
(-1.05613e-14 -2.60133e-13 0)
(-1.90491e-15 -3.29483e-13 0)
(3.71213e-14 -4.6495e-13 0)
(-7.23589e-14 -4.11978e-13 0)
(-1.75949e-13 -4.67105e-13 0)
(-2.02181e-13 -4.09506e-13 0)
(-1.24351e-13 -3.39926e-13 0)
(1.67235e-15 -3.68035e-13 0)
(-6.178e-14 -3.35459e-13 0)
(-1.36642e-13 -3.0641e-13 0)
(-1.40381e-13 -3.039e-13 0)
(-8.44641e-14 -2.99351e-13 0)
(-3.639e-14 -3.37592e-13 0)
(8.5156e-16 -3.15347e-13 0)
(-4.37742e-14 -3.52012e-13 0)
(-4.49824e-14 -3.57053e-13 0)
(-5.75831e-14 -3.41654e-13 0)
(-9.67561e-14 -3.3404e-13 0)
(-1.66201e-13 -2.39854e-13 0)
(-2.48293e-13 -1.663e-13 0)
(-2.34205e-13 -2.04166e-13 0)
(-1.73414e-13 -1.67832e-13 0)
(-1.57917e-13 -1.04374e-13 0)
(-1.79004e-13 -1.88574e-13 0)
(-8.76995e-14 -2.27152e-13 0)
(3.15174e-14 -2.7466e-13 0)
(5.73381e-14 -1.73879e-13 0)
(2.4477e-15 -2.42724e-13 0)
(-5.6569e-14 -2.75415e-13 0)
(-2.80808e-14 -3.19479e-13 0)
(6.88205e-14 -3.01422e-13 0)
(3.06141e-14 -2.54476e-13 0)
(4.00584e-14 -2.9647e-13 0)
(1.04864e-14 -3.9497e-13 0)
(-1.0118e-14 -3.7247e-13 0)
(7.16549e-14 -3.20938e-13 0)
(1.3823e-13 -3.34673e-13 0)
(1.49011e-13 -3.00753e-13 0)
(9.69134e-14 -3.31291e-13 0)
(1.41472e-13 -3.87345e-13 0)
(8.42459e-14 -3.55293e-13 0)
(8.07972e-15 -2.412e-13 0)
(2.38402e-15 -1.92994e-13 0)
(-8.79723e-14 -1.89326e-13 0)
(-1.28231e-13 -1.21548e-13 0)
(-1.07316e-13 -1.77932e-13 0)
(-8.22006e-14 -1.47458e-13 0)
(-7.44614e-14 -1.25861e-13 0)
(-1.25245e-13 -1.0303e-13 0)
(-1.48499e-13 -1.33504e-13 0)
(-1.2253e-13 -9.26575e-14 0)
(-8.21964e-14 -1.47727e-13 0)
(-3.74505e-14 -1.922e-13 0)
(-3.81984e-14 -2.70241e-13 0)
(2.95412e-14 -2.97922e-13 0)
(1.63764e-14 -2.51626e-13 0)
(-1.00633e-14 -2.52276e-13 0)
(1.26445e-14 -2.4003e-13 0)
(6.20708e-14 -2.60255e-13 0)
(1.20092e-13 -2.15164e-13 0)
(8.52636e-14 -1.21367e-13 0)
(7.74628e-14 -1.55808e-13 0)
(1.24334e-13 -2.53747e-13 0)
(9.29342e-14 -3.30902e-13 0)
(6.83577e-14 -3.3697e-13 0)
(1.64657e-13 -2.53432e-13 0)
(7.66416e-14 -2.71374e-13 0)
(-1.15733e-13 -3.23023e-13 0)
(-1.30831e-13 -2.72488e-13 0)
(-6.30847e-14 -2.04932e-13 0)
(1.99658e-14 -2.20799e-13 0)
(-4.52181e-14 -2.89448e-13 0)
(-1.15256e-13 -2.62387e-13 0)
(-5.76559e-14 -2.86477e-13 0)
(-1.41759e-13 -2.87689e-13 0)
(-1.99782e-13 -3.20977e-13 0)
(-6.94592e-14 -1.86649e-13 0)
(-7.61924e-15 -2.01008e-13 0)
(1.47605e-14 -1.28618e-13 0)
(8.48506e-14 -9.72915e-14 0)
(1.0516e-13 -1.47858e-13 0)
(6.16079e-14 -2.00971e-13 0)
(1.06574e-13 -2.46532e-13 0)
(6.13658e-14 -2.11185e-13 0)
(-7.28858e-14 -2.12984e-13 0)
(-1.99418e-14 -1.67026e-13 0)
(9.20132e-14 -2.55608e-13 0)
(1.50585e-13 -1.98059e-13 0)
(6.38291e-14 -1.95476e-13 0)
(-4.28003e-14 -2.02691e-13 0)
(-8.82208e-14 -1.87026e-13 0)
(-3.5406e-14 -2.45279e-13 0)
(5.1709e-14 -3.03207e-13 0)
(1.53926e-14 -3.33098e-13 0)
(-5.002e-14 -3.49027e-13 0)
(-1.3391e-13 -3.9247e-13 0)
(-4.22563e-14 -4.03067e-13 0)
(-5.86413e-15 -3.8875e-13 0)
(-3.07184e-14 -3.96028e-13 0)
(-5.39536e-14 -3.71419e-13 0)
(3.1332e-14 -3.23038e-13 0)
(1.14266e-13 -2.62017e-13 0)
(5.13261e-14 -2.72543e-13 0)
(-1.9041e-14 -2.95359e-13 0)
(-3.84658e-14 -3.14829e-13 0)
(1.66155e-14 -3.20486e-13 0)
(1.30702e-13 -1.70402e-13 0)