/*--------------------------------*- C++ -*----------------------------------*\
  =========                 |
  \\      /  F ield         | OpenFOAM: The Open Source CFD Toolbox
   \\    /   O peration     | Website:  https://openfoam.org
    \\  /    A nd           | Version:  13
     \\/     M anipulation  |
\*---------------------------------------------------------------------------*/
FoamFile
{
    format      ascii;
    class       volScalarField;
    location    "0.0013";
    object      CH4;
}
// * * * * * * * * * * * * * * * * * * * * * * * * * * * * * * * * * * * * * //

dimensions      [];

internalField   nonuniform List<scalar> 
33334
(
0.0347117
0.0347117
0.0347117
0.0347117
0.0347117
0.0347117
0.0347117
0.0347117
0.0347118
0.0347136
0.0347236
0.0347567
0.0348347
0.0349809
0.0352145
0.0355457
0.0359727
0.0364828
0.0370555
0.0376672
0.0382949
0.0389196
0.0395267
0.0401068
0.0406542
0.0411664
0.0416431
0.0420852
0.0424945
0.0428733
0.0432238
0.0435485
0.0438497
0.0441294
0.0443896
0.0446321
0.0448585
0.0450701
0.0452684
0.0454545
0.0456293
0.0457939
0.0459491
0.0460955
0.046234
0.0463651
0.0464893
0.0466072
0.0467191
0.0468256
0.046927
0.0470236
0.0471158
0.0472038
0.047288
0.0473686
0.0474459
0.0475201
0.0475913
0.0476599
0.0477259
0.0477896
0.047851
0.0479104
0.0479678
0.0480233
0.0480771
0.0481293
0.0481799
0.048229
0.0482767
0.0483231
0.0483683
0.0484122
0.048455
0.0484968
0.0485374
0.0485771
0.0486158
0.0486537
0.0486906
0.0487267
0.048762
0.0487965
0.0488303
0.0488634
0.0488957
0.0489274
0.0489585
0.048989
0.0490189
0.0490481
0.0490769
0.0491051
0.0491328
0.0491599
0.0491866
0.0492128
0.0492386
0.0492639
0.0492887
0.0493132
0.0493372
0.0493609
0.0493841
0.049407
0.0494295
0.0494517
0.0494736
0.0494952
0.0495165
0.0495375
0.049558
0.0495779
0.0495969
0.0496153
0.0496338
0.0496539
0.0496778
0.0497084
0.0497484
0.0497981
0.0498539
0.0499074
0.0499505
0.0499786
0.049993
0.0499984
0.0499998
0.05
0.05
0.05
0.05
0.05
0.05
0.05
0.05
0.05
0.05
0.05
0.05
0.05
0.05
0.05
0.05
0.05
0.05
0.05
0.05
0.05
0.05
0.05
0.05
0.05
0.05
0.05
0.05
0.05
0.05
0.05
0.05
0.05
0.05
0.05
0.05
0.05
0.0347117
0.0347117
0.0347117
0.0347117
0.0347117
0.0347117
0.0347117
0.0347117
0.0347118
0.0347136
0.0347236
0.0347567
0.0348347
0.0349809
0.0352145
0.0355457
0.0359727
0.0364828
0.0370555
0.0376672
0.0382949
0.0389196
0.0395267
0.0401068
0.0406542
0.0411664
0.0416431
0.0420852
0.0424945
0.0428733
0.0432238
0.0435485
0.0438497
0.0441294
0.0443896
0.0446321
0.0448584
0.0450701
0.0452684
0.0454545
0.0456293
0.0457939
0.0459491
0.0460955
0.046234
0.0463651
0.0464893
0.0466071
0.0467191
0.0468256
0.046927
0.0470236
0.0471158
0.0472038
0.047288
0.0473686
0.0474459
0.0475201
0.0475913
0.0476599
0.0477259
0.0477896
0.047851
0.0479104
0.0479677
0.0480233
0.0480771
0.0481292
0.0481798
0.048229
0.0482767
0.0483231
0.0483683
0.0484122
0.048455
0.0484967
0.0485374
0.0485771
0.0486158
0.0486536
0.0486906
0.0487267
0.048762
0.0487965
0.0488303
0.0488633
0.0488957
0.0489274
0.0489585
0.048989
0.0490188
0.0490481
0.0490769
0.0491051
0.0491327
0.0491599
0.0491866
0.0492128
0.0492385
0.0492638
0.0492887
0.0493132
0.0493372
0.0493608
0.0493841
0.049407
0.0494295
0.0494517
0.0494735
0.0494951
0.0495165
0.0495375
0.049558
0.0495778
0.0495969
0.0496153
0.0496338
0.0496539
0.0496777
0.0497083
0.0497483
0.0497981
0.0498538
0.0499074
0.0499505
0.0499786
0.049993
0.0499984
0.0499998
0.05
0.05
0.05
0.05
0.05
0.05
0.05
0.05
0.05
0.05
0.05
0.05
0.05
0.05
0.05
0.05
0.05
0.05
0.05
0.05
0.05
0.05
0.05
0.05
0.05
0.05
0.05
0.05
0.05
0.05
0.05
0.05
0.05
0.05
0.05
0.05
0.05
0.0347117
0.0347117
0.0347117
0.0347117
0.0347117
0.0347117
0.0347117
0.0347117
0.0347118
0.0347136
0.0347236
0.0347567
0.0348347
0.0349809
0.0352145
0.0355457
0.0359727
0.0364828
0.0370555
0.0376672
0.0382949
0.0389196
0.0395267
0.0401068
0.0406542
0.0411664
0.0416431
0.0420852
0.0424945
0.0428733
0.0432238
0.0435485
0.0438497
0.0441294
0.0443896
0.0446321
0.0448584
0.0450701
0.0452684
0.0454545
0.0456293
0.0457939
0.0459491
0.0460955
0.046234
0.0463651
0.0464893
0.0466071
0.0467191
0.0468256
0.046927
0.0470236
0.0471158
0.0472038
0.047288
0.0473686
0.0474459
0.0475201
0.0475913
0.0476599
0.0477259
0.0477896
0.047851
0.0479103
0.0479677
0.0480233
0.0480771
0.0481292
0.0481798
0.048229
0.0482767
0.0483231
0.0483683
0.0484122
0.048455
0.0484967
0.0485374
0.0485771
0.0486158
0.0486536
0.0486906
0.0487267
0.0487619
0.0487965
0.0488302
0.0488633
0.0488957
0.0489274
0.0489585
0.0489889
0.0490188
0.0490481
0.0490768
0.049105
0.0491327
0.0491599
0.0491866
0.0492128
0.0492385
0.0492638
0.0492887
0.0493131
0.0493372
0.0493608
0.0493841
0.049407
0.0494295
0.0494516
0.0494735
0.0494951
0.0495164
0.0495375
0.049558
0.0495778
0.0495968
0.0496153
0.0496338
0.0496538
0.0496777
0.0497083
0.0497482
0.049798
0.0498537
0.0499073
0.0499504
0.0499786
0.049993
0.0499984
0.0499998
0.05
0.05
0.05
0.05
0.05
0.05
0.05
0.05
0.05
0.05
0.05
0.05
0.05
0.05
0.05
0.05
0.05
0.05
0.05
0.05
0.05
0.05
0.05
0.05
0.05
0.05
0.05
0.05
0.05
0.05
0.05
0.05
0.05
0.05
0.05
0.05
0.05
0.0347117
0.0347117
0.0347117
0.0347117
0.0347117
0.0347117
0.0347117
0.0347117
0.0347118
0.0347136
0.0347236
0.0347567
0.0348347
0.0349809
0.0352145
0.0355457
0.0359727
0.0364828
0.0370555
0.0376672
0.0382949
0.0389196
0.0395267
0.0401068
0.0406542
0.0411664
0.0416431
0.0420852
0.0424945
0.0428733
0.0432238
0.0435485
0.0438497
0.0441294
0.0443896
0.0446321
0.0448584
0.0450701
0.0452684
0.0454545
0.0456293
0.0457939
0.0459491
0.0460955
0.046234
0.0463651
0.0464893
0.0466071
0.0467191
0.0468256
0.046927
0.0470236
0.0471158
0.0472038
0.047288
0.0473686
0.0474459
0.0475201
0.0475913
0.0476599
0.0477259
0.0477896
0.047851
0.0479103
0.0479677
0.0480233
0.0480771
0.0481292
0.0481798
0.048229
0.0482767
0.0483231
0.0483682
0.0484122
0.048455
0.0484967
0.0485374
0.0485771
0.0486158
0.0486536
0.0486905
0.0487266
0.0487619
0.0487965
0.0488302
0.0488633
0.0488957
0.0489274
0.0489585
0.0489889
0.0490188
0.0490481
0.0490768
0.049105
0.0491327
0.0491599
0.0491866
0.0492128
0.0492385
0.0492638
0.0492887
0.0493131
0.0493372
0.0493608
0.0493841
0.0494069
0.0494295
0.0494516
0.0494735
0.0494951
0.0495164
0.0495374
0.049558
0.0495778
0.0495968
0.0496152
0.0496338
0.0496538
0.0496777
0.0497083
0.0497482
0.049798
0.0498537
0.0499073
0.0499504
0.0499786
0.049993
0.0499984
0.0499998
0.05
0.05
0.05
0.05
0.05
0.05
0.05
0.05
0.05
0.05
0.05
0.05
0.05
0.05
0.05
0.05
0.05
0.05
0.05
0.05
0.05
0.05
0.05
0.05
0.05
0.05
0.05
0.05
0.05
0.05
0.05
0.05
0.05
0.05
0.05
0.05
0.05
0.0347117
0.0347117
0.0347117
0.0347117
0.0347117
0.0347117
0.0347117
0.0347117
0.0347118
0.0347136
0.0347236
0.0347567
0.0348347
0.0349809
0.0352145
0.0355457
0.0359727
0.0364828
0.0370555
0.0376672
0.0382949
0.0389196
0.0395267
0.0401068
0.0406542
0.0411665
0.0416431
0.0420852
0.0424945
0.0428733
0.0432238
0.0435485
0.0438497
0.0441294
0.0443896
0.0446321
0.0448584
0.0450701
0.0452684
0.0454545
0.0456293
0.0457939
0.0459491
0.0460955
0.046234
0.0463651
0.0464893
0.0466071
0.0467191
0.0468256
0.046927
0.0470236
0.0471158
0.0472038
0.047288
0.0473686
0.0474459
0.0475201
0.0475913
0.0476599
0.0477259
0.0477896
0.047851
0.0479103
0.0479677
0.0480233
0.0480771
0.0481292
0.0481798
0.048229
0.0482767
0.0483231
0.0483682
0.0484122
0.048455
0.0484967
0.0485374
0.0485771
0.0486158
0.0486536
0.0486905
0.0487266
0.0487619
0.0487965
0.0488302
0.0488633
0.0488957
0.0489274
0.0489585
0.0489889
0.0490188
0.0490481
0.0490768
0.049105
0.0491327
0.0491599
0.0491865
0.0492128
0.0492385
0.0492638
0.0492887
0.0493131
0.0493372
0.0493608
0.0493841
0.0494069
0.0494294
0.0494516
0.0494735
0.0494951
0.0495164
0.0495374
0.0495579
0.0495778
0.0495968
0.0496152
0.0496337
0.0496538
0.0496777
0.0497082
0.0497482
0.0497979
0.0498536
0.0499073
0.0499504
0.0499785
0.049993
0.0499984
0.0499998
0.05
0.05
0.05
0.05
0.05
0.05
0.05
0.05
0.05
0.05
0.05
0.05
0.05
0.05
0.05
0.05
0.05
0.05
0.05
0.05
0.05
0.05
0.05
0.05
0.05
0.05
0.05
0.05
0.05
0.05
0.05
0.05
0.05
0.05
0.05
0.05
0.05
0.0347117
0.0347117
0.0347117
0.0347117
0.0347117
0.0347117
0.0347117
0.0347117
0.0347118
0.0347136
0.0347236
0.0347567
0.0348347
0.0349809
0.0352145
0.0355457
0.0359727
0.0364828
0.0370555
0.0376672
0.038295
0.0389196
0.0395267
0.0401068
0.0406542
0.0411665
0.0416431
0.0420852
0.0424945
0.0428733
0.0432238
0.0435485
0.0438497
0.0441294
0.0443896
0.0446321
0.0448584
0.0450701
0.0452684
0.0454545
0.0456293
0.0457939
0.0459491
0.0460955
0.046234
0.0463651
0.0464893
0.0466071
0.0467191
0.0468256
0.046927
0.0470236
0.0471158
0.0472038
0.047288
0.0473686
0.0474459
0.0475201
0.0475913
0.0476599
0.0477259
0.0477896
0.047851
0.0479103
0.0479677
0.0480233
0.0480771
0.0481292
0.0481798
0.048229
0.0482767
0.0483231
0.0483682
0.0484122
0.048455
0.0484967
0.0485374
0.0485771
0.0486158
0.0486536
0.0486905
0.0487266
0.0487619
0.0487965
0.0488302
0.0488633
0.0488957
0.0489274
0.0489585
0.0489889
0.0490188
0.0490481
0.0490768
0.049105
0.0491327
0.0491599
0.0491865
0.0492127
0.0492385
0.0492638
0.0492887
0.0493131
0.0493372
0.0493608
0.0493841
0.0494069
0.0494294
0.0494516
0.0494735
0.0494951
0.0495164
0.0495374
0.0495579
0.0495778
0.0495968
0.0496152
0.0496337
0.0496538
0.0496777
0.0497082
0.0497482
0.0497979
0.0498536
0.0499073
0.0499504
0.0499785
0.049993
0.0499984
0.0499998
0.05
0.05
0.05
0.05
0.05
0.05
0.05
0.05
0.05
0.05
0.05
0.05
0.05
0.05
0.05
0.05
0.05
0.05
0.05
0.05
0.05
0.05
0.05
0.05
0.05
0.05
0.05
0.05
0.05
0.05
0.05
0.05
0.05
0.05
0.05
0.05
0.05
0.0347117
0.0347117
0.0347117
0.0347117
0.0347117
0.0347117
0.0347117
0.0347117
0.0347118
0.0347136
0.0347236
0.0347567
0.0348347
0.0349809
0.0352145
0.0355457
0.0359727
0.0364828
0.0370555
0.0376672
0.038295
0.0389196
0.0395267
0.0401068
0.0406542
0.0411665
0.0416431
0.0420852
0.0424945
0.0428733
0.0432238
0.0435485
0.0438497
0.0441294
0.0443896
0.0446321
0.0448584
0.0450701
0.0452684
0.0454545
0.0456293
0.0457939
0.0459491
0.0460955
0.046234
0.0463651
0.0464893
0.0466071
0.0467191
0.0468256
0.046927
0.0470236
0.0471158
0.0472038
0.047288
0.0473686
0.0474459
0.0475201
0.0475913
0.0476599
0.0477259
0.0477896
0.047851
0.0479103
0.0479677
0.0480233
0.0480771
0.0481292
0.0481798
0.048229
0.0482767
0.0483231
0.0483682
0.0484122
0.048455
0.0484967
0.0485374
0.0485771
0.0486158
0.0486536
0.0486905
0.0487266
0.0487619
0.0487965
0.0488302
0.0488633
0.0488957
0.0489274
0.0489585
0.0489889
0.0490188
0.0490481
0.0490768
0.049105
0.0491327
0.0491599
0.0491865
0.0492127
0.0492385
0.0492638
0.0492887
0.0493131
0.0493372
0.0493608
0.0493841
0.0494069
0.0494294
0.0494516
0.0494735
0.0494951
0.0495164
0.0495374
0.0495579
0.0495778
0.0495968
0.0496152
0.0496337
0.0496538
0.0496777
0.0497082
0.0497482
0.0497979
0.0498536
0.0499073
0.0499504
0.0499785
0.049993
0.0499984
0.0499998
0.05
0.05
0.05
0.05
0.05
0.05
0.05
0.05
0.05
0.05
0.05
0.05
0.05
0.05
0.05
0.05
0.05
0.05
0.05
0.05
0.05
0.05
0.05
0.05
0.05
0.05
0.05
0.05
0.05
0.05
0.05
0.05
0.05
0.05
0.05
0.05
0.05
0.0347117
0.0347117
0.0347117
0.0347117
0.0347117
0.0347117
0.0347117
0.0347117
0.0347118
0.0347136
0.0347236
0.0347567
0.0348347
0.0349809
0.0352145
0.0355457
0.0359727
0.0364828
0.0370556
0.0376672
0.038295
0.0389196
0.0395268
0.0401068
0.0406542
0.0411665
0.0416431
0.0420852
0.0424945
0.0428733
0.0432238
0.0435485
0.0438497
0.0441294
0.0443896
0.0446321
0.0448584
0.0450701
0.0452684
0.0454545
0.0456293
0.0457939
0.0459491
0.0460955
0.046234
0.0463651
0.0464893
0.0466071
0.0467191
0.0468256
0.046927
0.0470236
0.0471158
0.0472038
0.047288
0.0473686
0.0474459
0.0475201
0.0475913
0.0476599
0.0477259
0.0477896
0.047851
0.0479103
0.0479677
0.0480233
0.0480771
0.0481292
0.0481798
0.048229
0.0482767
0.0483231
0.0483682
0.0484122
0.048455
0.0484967
0.0485374
0.0485771
0.0486158
0.0486536
0.0486905
0.0487266
0.0487619
0.0487965
0.0488302
0.0488633
0.0488957
0.0489274
0.0489585
0.0489889
0.0490188
0.0490481
0.0490768
0.049105
0.0491327
0.0491599
0.0491865
0.0492127
0.0492385
0.0492638
0.0492887
0.0493131
0.0493372
0.0493608
0.0493841
0.0494069
0.0494294
0.0494516
0.0494735
0.0494951
0.0495164
0.0495374
0.0495579
0.0495778
0.0495968
0.0496152
0.0496337
0.0496538
0.0496777
0.0497082
0.0497482
0.0497979
0.0498536
0.0499073
0.0499504
0.0499785
0.049993
0.0499984
0.0499998
0.05
0.05
0.05
0.05
0.05
0.05
0.05
0.05
0.05
0.05
0.05
0.05
0.05
0.05
0.05
0.05
0.05
0.05
0.05
0.05
0.05
0.05
0.05
0.05
0.05
0.05
0.05
0.05
0.05
0.05
0.05
0.05
0.05
0.05
0.05
0.05
0.05
0.0347118
0.0347118
0.0347118
0.0347118
0.0347118
0.0347118
0.0347118
0.0347118
0.034712
0.0347137
0.0347237
0.0347568
0.0348348
0.034981
0.0352146
0.0355458
0.0359728
0.0364829
0.0370556
0.0376673
0.038295
0.0389196
0.0395268
0.0401068
0.0406542
0.0411665
0.0416431
0.0420852
0.0424945
0.0428733
0.0432238
0.0435485
0.0438497
0.0441294
0.0443896
0.0446321
0.0448585
0.0450701
0.0452684
0.0454545
0.0456293
0.0457939
0.0459491
0.0460955
0.046234
0.0463651
0.0464893
0.0466071
0.0467191
0.0468256
0.046927
0.0470236
0.0471158
0.0472038
0.047288
0.0473686
0.0474459
0.0475201
0.0475913
0.0476599
0.0477259
0.0477896
0.047851
0.0479103
0.0479677
0.0480233
0.0480771
0.0481292
0.0481798
0.048229
0.0482767
0.0483231
0.0483682
0.0484122
0.048455
0.0484967
0.0485374
0.0485771
0.0486158
0.0486536
0.0486905
0.0487266
0.0487619
0.0487965
0.0488302
0.0488633
0.0488957
0.0489274
0.0489585
0.0489889
0.0490188
0.0490481
0.0490768
0.049105
0.0491327
0.0491599
0.0491865
0.0492128
0.0492385
0.0492638
0.0492887
0.0493131
0.0493372
0.0493608
0.0493841
0.0494069
0.0494294
0.0494516
0.0494735
0.0494951
0.0495164
0.0495374
0.0495579
0.0495778
0.0495968
0.0496152
0.0496337
0.0496538
0.0496777
0.0497082
0.0497482
0.0497979
0.0498536
0.0499073
0.0499504
0.0499785
0.049993
0.0499984
0.0499998
0.05
0.05
0.05
0.05
0.05
0.05
0.05
0.05
0.05
0.05
0.05
0.05
0.05
0.05
0.05
0.05
0.05
0.05
0.05
0.05
0.05
0.05
0.05
0.05
0.05
0.05
0.05
0.05
0.05
0.05
0.05
0.05
0.05
0.05
0.05
0.05
0.05
0.0347136
0.0347136
0.0347136
0.0347136
0.0347136
0.0347136
0.0347136
0.0347136
0.0347137
0.0347155
0.0347255
0.0347586
0.0348365
0.0349826
0.0352162
0.0355472
0.035974
0.0364839
0.0370565
0.037668
0.0382956
0.0389201
0.0395271
0.0401071
0.0406545
0.0411666
0.0416433
0.0420853
0.0424946
0.0428733
0.0432239
0.0435486
0.0438497
0.0441294
0.0443896
0.0446321
0.0448585
0.0450701
0.0452684
0.0454545
0.0456293
0.0457939
0.0459491
0.0460955
0.046234
0.0463651
0.0464893
0.0466071
0.0467191
0.0468256
0.046927
0.0470236
0.0471158
0.0472038
0.047288
0.0473686
0.0474459
0.0475201
0.0475913
0.0476599
0.0477259
0.0477896
0.047851
0.0479103
0.0479677
0.0480233
0.0480771
0.0481292
0.0481798
0.048229
0.0482767
0.0483231
0.0483682
0.0484122
0.048455
0.0484967
0.0485374
0.0485771
0.0486158
0.0486536
0.0486905
0.0487266
0.0487619
0.0487965
0.0488302
0.0488633
0.0488957
0.0489274
0.0489585
0.0489889
0.0490188
0.0490481
0.0490768
0.049105
0.0491327
0.0491599
0.0491865
0.0492128
0.0492385
0.0492638
0.0492887
0.0493131
0.0493372
0.0493608
0.0493841
0.0494069
0.0494294
0.0494516
0.0494735
0.0494951
0.0495164
0.0495374
0.0495579
0.0495778
0.0495968
0.0496152
0.0496337
0.0496538
0.0496777
0.0497082
0.0497482
0.0497979
0.0498536
0.0499073
0.0499504
0.0499785
0.049993
0.0499984
0.0499998
0.05
0.05
0.05
0.05
0.05
0.05
0.05
0.05
0.05
0.05
0.05
0.05
0.05
0.05
0.05
0.05
0.05
0.05
0.05
0.05
0.05
0.05
0.05
0.05
0.05
0.05
0.05
0.05
0.05
0.05
0.05
0.05
0.05
0.05
0.05
0.05
0.05
0.0347236
0.0347236
0.0347236
0.0347236
0.0347236
0.0347236
0.0347236
0.0347236
0.0347237
0.0347255
0.0347354
0.0347684
0.0348461
0.0349919
0.0352249
0.0355551
0.0359811
0.0364901
0.0370617
0.0376723
0.038299
0.0389229
0.0395293
0.0401088
0.0406558
0.0411677
0.0416441
0.0420859
0.0424951
0.0428737
0.0432242
0.0435488
0.0438499
0.0441295
0.0443897
0.0446322
0.0448585
0.0450702
0.0452685
0.0454545
0.0456293
0.0457939
0.0459491
0.0460955
0.046234
0.0463651
0.0464893
0.0466071
0.0467191
0.0468256
0.046927
0.0470236
0.0471158
0.0472038
0.047288
0.0473686
0.0474459
0.0475201
0.0475913
0.0476599
0.0477259
0.0477896
0.047851
0.0479103
0.0479677
0.0480233
0.0480771
0.0481292
0.0481798
0.048229
0.0482767
0.0483231
0.0483682
0.0484122
0.048455
0.0484967
0.0485374
0.0485771
0.0486158
0.0486536
0.0486905
0.0487266
0.0487619
0.0487965
0.0488302
0.0488633
0.0488957
0.0489274
0.0489585
0.0489889
0.0490188
0.0490481
0.0490768
0.049105
0.0491327
0.0491599
0.0491865
0.0492128
0.0492385
0.0492638
0.0492887
0.0493131
0.0493372
0.0493608
0.0493841
0.0494069
0.0494294
0.0494516
0.0494735
0.0494951
0.0495164
0.0495374
0.0495579
0.0495778
0.0495968
0.0496152
0.0496337
0.0496538
0.0496777
0.0497082
0.0497482
0.0497979
0.0498536
0.0499073
0.0499504
0.0499785
0.049993
0.0499984
0.0499998
0.05
0.05
0.05
0.05
0.05
0.05
0.05
0.05
0.05
0.05
0.05
0.05
0.05
0.05
0.05
0.05
0.05
0.05
0.05
0.05
0.05
0.05
0.05
0.05
0.05
0.05
0.05
0.05
0.05
0.05
0.05
0.05
0.05
0.05
0.05
0.05
0.05
0.0347567
0.0347567
0.0347567
0.0347567
0.0347567
0.0347567
0.0347567
0.0347567
0.0347568
0.0347586
0.0347684
0.0348011
0.0348782
0.0350227
0.0352539
0.0355819
0.036005
0.0365109
0.0370794
0.0376871
0.0383112
0.0389326
0.0395371
0.040115
0.0406607
0.0411716
0.0416471
0.0420884
0.042497
0.0428752
0.0432254
0.0435497
0.0438506
0.0441302
0.0443902
0.0446326
0.0448588
0.0450704
0.0452687
0.0454547
0.0456295
0.045794
0.0459492
0.0460956
0.0462341
0.0463651
0.0464893
0.0466072
0.0467191
0.0468256
0.046927
0.0470236
0.0471158
0.0472038
0.047288
0.0473686
0.0474459
0.0475201
0.0475913
0.0476599
0.0477259
0.0477896
0.047851
0.0479103
0.0479677
0.0480233
0.0480771
0.0481292
0.0481798
0.048229
0.0482767
0.0483231
0.0483682
0.0484122
0.048455
0.0484967
0.0485374
0.0485771
0.0486158
0.0486536
0.0486905
0.0487266
0.0487619
0.0487965
0.0488302
0.0488633
0.0488957
0.0489274
0.0489585
0.0489889
0.0490188
0.0490481
0.0490768
0.049105
0.0491327
0.0491599
0.0491865
0.0492128
0.0492385
0.0492638
0.0492887
0.0493131
0.0493372
0.0493608
0.0493841
0.0494069
0.0494294
0.0494516
0.0494735
0.0494951
0.0495164
0.0495374
0.0495579
0.0495778
0.0495968
0.0496152
0.0496337
0.0496538
0.0496777
0.0497082
0.0497482
0.0497979
0.0498536
0.0499073
0.0499504
0.0499785
0.049993
0.0499984
0.0499998
0.05
0.05
0.05
0.05
0.05
0.05
0.05
0.05
0.05
0.05
0.05
0.05
0.05
0.05
0.05
0.05
0.05
0.05
0.05
0.05
0.05
0.05
0.05
0.05
0.05
0.05
0.05
0.05
0.05
0.05
0.05
0.05
0.05
0.05
0.05
0.05
0.05
0.0348347
0.0348347
0.0348347
0.0348347
0.0348347
0.0348347
0.0348347
0.0348347
0.0348348
0.0348365
0.0348461
0.0348782
0.0349537
0.0350956
0.0353228
0.0356454
0.0360621
0.036561
0.0371223
0.0377231
0.0383409
0.0389569
0.0395568
0.0401308
0.0406733
0.0411817
0.0416552
0.0420948
0.0425022
0.0428794
0.0432287
0.0435525
0.0438528
0.0441319
0.0443917
0.0446337
0.0448598
0.0450712
0.0452693
0.0454552
0.0456299
0.0457944
0.0459494
0.0460958
0.0462343
0.0463653
0.0464894
0.0466073
0.0467192
0.0468257
0.046927
0.0470236
0.0471158
0.0472039
0.047288
0.0473687
0.0474459
0.0475201
0.0475913
0.0476599
0.0477259
0.0477896
0.047851
0.0479103
0.0479677
0.0480233
0.0480771
0.0481292
0.0481798
0.048229
0.0482767
0.0483231
0.0483682
0.0484122
0.048455
0.0484967
0.0485374
0.0485771
0.0486158
0.0486536
0.0486905
0.0487266
0.0487619
0.0487965
0.0488302
0.0488633
0.0488957
0.0489274
0.0489585
0.0489889
0.0490188
0.0490481
0.0490768
0.049105
0.0491327
0.0491599
0.0491865
0.0492128
0.0492385
0.0492638
0.0492887
0.0493131
0.0493372
0.0493608
0.0493841
0.0494069
0.0494294
0.0494516
0.0494735
0.0494951
0.0495164
0.0495374
0.0495579
0.0495778
0.0495968
0.0496152
0.0496337
0.0496538
0.0496777
0.0497082
0.0497482
0.0497979
0.0498536
0.0499073
0.0499504
0.0499785
0.049993
0.0499984
0.0499998
0.05
0.05
0.05
0.05
0.05
0.05
0.05
0.05
0.05
0.05
0.05
0.05
0.05
0.05
0.05
0.05
0.05
0.05
0.05
0.05
0.05
0.05
0.05
0.05
0.05
0.05
0.05
0.05
0.05
0.05
0.05
0.05
0.05
0.05
0.05
0.05
0.05
0.0349809
0.0349809
0.0349809
0.0349809
0.0349809
0.0349809
0.0349809
0.0349809
0.034981
0.0349826
0.0349919
0.0350227
0.0350956
0.0352327
0.0354527
0.0357656
0.0361707
0.0366567
0.0372048
0.0377928
0.0383989
0.0390046
0.0395956
0.0401623
0.0406988
0.0412022
0.0416718
0.0421083
0.0425131
0.0428882
0.0432359
0.0435583
0.0438577
0.0441359
0.0443949
0.0446364
0.044862
0.0450731
0.0452708
0.0454565
0.045631
0.0457953
0.0459502
0.0460965
0.0462348
0.0463657
0.0464898
0.0466076
0.0467195
0.0468259
0.0469272
0.0470238
0.0471159
0.047204
0.0472881
0.0473687
0.047446
0.0475201
0.0475914
0.0476599
0.047726
0.0477896
0.047851
0.0479104
0.0479678
0.0480233
0.0480771
0.0481292
0.0481798
0.048229
0.0482767
0.0483231
0.0483683
0.0484122
0.048455
0.0484967
0.0485374
0.0485771
0.0486158
0.0486536
0.0486905
0.0487266
0.0487619
0.0487965
0.0488302
0.0488633
0.0488957
0.0489274
0.0489585
0.0489889
0.0490188
0.0490481
0.0490768
0.049105
0.0491327
0.0491599
0.0491865
0.0492128
0.0492385
0.0492638
0.0492887
0.0493131
0.0493372
0.0493608
0.0493841
0.0494069
0.0494294
0.0494516
0.0494735
0.0494951
0.0495164
0.0495374
0.049558
0.0495778
0.0495968
0.0496152
0.0496337
0.0496538
0.0496777
0.0497082
0.0497482
0.0497979
0.0498536
0.0499073
0.0499504
0.0499785
0.049993
0.0499984
0.0499998
0.05
0.05
0.05
0.05
0.05
0.05
0.05
0.05
0.05
0.05
0.05
0.05
0.05
0.05
0.05
0.05
0.05
0.05
0.05
0.05
0.05
0.05
0.05
0.05
0.05
0.05
0.05
0.05
0.05
0.05
0.05
0.05
0.05
0.05
0.05
0.05
0.05
0.0352145
0.0352145
0.0352145
0.0352145
0.0352145
0.0352145
0.0352145
0.0352145
0.0352146
0.0352162
0.0352249
0.0352539
0.0353228
0.0354527
0.0356616
0.0359596
0.0363467
0.0368127
0.03734
0.0379079
0.0384954
0.0390845
0.0396612
0.0402159
0.0407425
0.0412377
0.0417007
0.0421318
0.0425323
0.042904
0.0432489
0.043569
0.0438665
0.0441432
0.044401
0.0446415
0.0448663
0.0450766
0.0452738
0.045459
0.0456331
0.0457971
0.0459517
0.0460977
0.0462359
0.0463666
0.0464906
0.0466083
0.0467201
0.0468264
0.0469276
0.0470242
0.0471163
0.0472042
0.0472884
0.047369
0.0474462
0.0475203
0.0475915
0.0476601
0.0477261
0.0477897
0.0478511
0.0479105
0.0479678
0.0480234
0.0480772
0.0481293
0.0481799
0.048229
0.0482767
0.0483231
0.0483683
0.0484122
0.048455
0.0484967
0.0485374
0.0485771
0.0486158
0.0486536
0.0486906
0.0487267
0.0487619
0.0487965
0.0488302
0.0488633
0.0488957
0.0489274
0.0489585
0.0489889
0.0490188
0.0490481
0.0490768
0.049105
0.0491327
0.0491599
0.0491865
0.0492128
0.0492385
0.0492638
0.0492887
0.0493131
0.0493372
0.0493608
0.0493841
0.0494069
0.0494294
0.0494516
0.0494735
0.0494951
0.0495164
0.0495374
0.049558
0.0495778
0.0495968
0.0496152
0.0496337
0.0496538
0.0496777
0.0497082
0.0497482
0.0497979
0.0498536
0.0499073
0.0499504
0.0499785
0.049993
0.0499984
0.0499998
0.05
0.05
0.05
0.05
0.05
0.05
0.05
0.05
0.05
0.05
0.05
0.05
0.05
0.05
0.05
0.05
0.05
0.05
0.05
0.05
0.05
0.05
0.05
0.05
0.05
0.05
0.05
0.05
0.05
0.05
0.05
0.05
0.05
0.05
0.05
0.05
0.05
0.0355457
0.0355457
0.0355457
0.0355457
0.0355457
0.0355457
0.0355457
0.0355457
0.0355458
0.0355472
0.0355551
0.0355819
0.0356454
0.0357656
0.0359596
0.0362375
0.0366
0.0370384
0.0375371
0.0380767
0.0386379
0.0392034
0.0397597
0.040297
0.040809
0.0412923
0.0417455
0.0421686
0.0425626
0.042929
0.0432695
0.0435862
0.0438808
0.0441551
0.044411
0.0446499
0.0448733
0.0450826
0.0452789
0.0454632
0.0456367
0.0458001
0.0459543
0.0461
0.0462378
0.0463683
0.046492
0.0466095
0.0467211
0.0468273
0.0469284
0.0470248
0.0471169
0.0472048
0.0472889
0.0473694
0.0474466
0.0475207
0.0475919
0.0476604
0.0477263
0.04779
0.0478514
0.0479107
0.047968
0.0480235
0.0480773
0.0481294
0.04818
0.0482291
0.0482769
0.0483232
0.0483684
0.0484123
0.0484551
0.0484968
0.0485375
0.0485771
0.0486159
0.0486537
0.0486906
0.0487267
0.048762
0.0487965
0.0488303
0.0488633
0.0488957
0.0489274
0.0489585
0.0489889
0.0490188
0.0490481
0.0490768
0.049105
0.0491327
0.0491599
0.0491866
0.0492128
0.0492385
0.0492638
0.0492887
0.0493131
0.0493372
0.0493608
0.0493841
0.0494069
0.0494294
0.0494516
0.0494735
0.0494951
0.0495164
0.0495374
0.049558
0.0495778
0.0495968
0.0496152
0.0496337
0.0496538
0.0496777
0.0497082
0.0497482
0.0497979
0.0498537
0.0499073
0.0499504
0.0499785
0.049993
0.0499984
0.0499998
0.05
0.05
0.05
0.05
0.05
0.05
0.05
0.05
0.05
0.05
0.05
0.05
0.05
0.05
0.05
0.05
0.05
0.05
0.05
0.05
0.05
0.05
0.05
0.05
0.05
0.05
0.05
0.05
0.05
0.05
0.05
0.05
0.05
0.05
0.05
0.05
0.05
0.0359727
0.0359727
0.0359727
0.0359727
0.0359727
0.0359727
0.0359727
0.0359727
0.0359728
0.035974
0.0359811
0.036005
0.0360621
0.0361707
0.0363467
0.0366
0.0369322
0.0373364
0.037799
0.0383029
0.0388304
0.0393654
0.0398949
0.0404091
0.0409018
0.0413689
0.0418088
0.042221
0.042606
0.042965
0.0432995
0.0436112
0.0439018
0.0441728
0.0444258
0.0446624
0.0448839
0.0450916
0.0452865
0.0454698
0.0456423
0.0458049
0.0459585
0.0461035
0.0462408
0.0463709
0.0464943
0.0466115
0.0467228
0.0468288
0.0469297
0.047026
0.0471179
0.0472057
0.0472897
0.0473701
0.0474472
0.0475212
0.0475924
0.0476609
0.0477268
0.0477904
0.0478518
0.047911
0.0479684
0.0480239
0.0480776
0.0481297
0.0481803
0.0482294
0.0482771
0.0483235
0.0483686
0.0484125
0.0484553
0.048497
0.0485376
0.0485773
0.048616
0.0486538
0.0486907
0.0487268
0.0487621
0.0487966
0.0488303
0.0488634
0.0488958
0.0489275
0.0489585
0.048989
0.0490189
0.0490481
0.0490769
0.0491051
0.0491327
0.0491599
0.0491866
0.0492128
0.0492385
0.0492638
0.0492887
0.0493131
0.0493372
0.0493608
0.0493841
0.0494069
0.0494295
0.0494516
0.0494735
0.0494951
0.0495164
0.0495374
0.049558
0.0495778
0.0495968
0.0496152
0.0496337
0.0496538
0.0496777
0.0497082
0.0497482
0.0497979
0.0498537
0.0499073
0.0499504
0.0499785
0.049993
0.0499984
0.0499998
0.05
0.05
0.05
0.05
0.05
0.05
0.05
0.05
0.05
0.05
0.05
0.05
0.05
0.05
0.05
0.05
0.05
0.05
0.05
0.05
0.05
0.05
0.05
0.05
0.05
0.05
0.05
0.05
0.05
0.05
0.05
0.05
0.05
0.05
0.05
0.05
0.05
0.0364828
0.0364828
0.0364828
0.0364828
0.0364828
0.0364828
0.0364828
0.0364828
0.0364829
0.0364839
0.0364901
0.0365109
0.036561
0.0366567
0.0368127
0.0370384
0.0373364
0.0377014
0.0381224
0.0385846
0.0390723
0.0395707
0.0400677
0.0405538
0.0410224
0.0414694
0.0418924
0.0422905
0.042664
0.0430135
0.0433402
0.0436454
0.0439305
0.044197
0.0444464
0.0446799
0.0448988
0.0451043
0.0452974
0.0454791
0.0456503
0.0458118
0.0459644
0.0461087
0.0462453
0.0463748
0.0464976
0.0466144
0.0467254
0.046831
0.0469317
0.0470277
0.0471194
0.047207
0.0472909
0.0473712
0.0474482
0.0475222
0.0475933
0.0476617
0.0477275
0.0477911
0.0478524
0.0479116
0.0479689
0.0480244
0.0480781
0.0481302
0.0481807
0.0482298
0.0482775
0.0483238
0.0483689
0.0484128
0.0484556
0.0484972
0.0485379
0.0485775
0.0486162
0.048654
0.0486909
0.048727
0.0487622
0.0487967
0.0488305
0.0488635
0.0488959
0.0489276
0.0489587
0.0489891
0.049019
0.0490482
0.049077
0.0491051
0.0491328
0.04916
0.0491866
0.0492128
0.0492386
0.0492639
0.0492887
0.0493132
0.0493372
0.0493609
0.0493841
0.049407
0.0494295
0.0494517
0.0494735
0.0494951
0.0495165
0.0495375
0.049558
0.0495778
0.0495968
0.0496152
0.0496338
0.0496538
0.0496777
0.0497083
0.0497482
0.0497979
0.0498537
0.0499073
0.0499504
0.0499785
0.049993
0.0499984
0.0499998
0.05
0.05
0.05
0.05
0.05
0.05
0.05
0.05
0.05
0.05
0.05
0.05
0.05
0.05
0.05
0.05
0.05
0.05
0.05
0.05
0.05
0.05
0.05
0.05
0.05
0.05
0.05
0.05
0.05
0.05
0.05
0.05
0.05
0.05
0.05
0.05
0.05
0.0370555
0.0370555
0.0370555
0.0370555
0.0370555
0.0370555
0.0370555
0.0370556
0.0370556
0.0370565
0.0370617
0.0370794
0.0371223
0.0372048
0.03734
0.0375371
0.037799
0.0381224
0.0384986
0.0389153
0.0393589
0.0398164
0.0402764
0.0407301
0.0411707
0.0415938
0.0419967
0.042378
0.0427375
0.0430753
0.0433922
0.0436893
0.0439677
0.0442287
0.0444733
0.0447028
0.0449184
0.0451211
0.0453118
0.0454915
0.0456611
0.0458211
0.0459724
0.0461157
0.0462514
0.0463801
0.0465023
0.0466184
0.0467289
0.0468341
0.0469345
0.0470302
0.0471216
0.047209
0.0472926
0.0473728
0.0474497
0.0475235
0.0475945
0.0476628
0.0477286
0.0477921
0.0478533
0.0479125
0.0479698
0.0480252
0.0480788
0.0481309
0.0481814
0.0482304
0.048278
0.0483244
0.0483694
0.0484133
0.048456
0.0484977
0.0485383
0.0485779
0.0486166
0.0486543
0.0486912
0.0487273
0.0487625
0.048797
0.0488308
0.0488638
0.0488961
0.0489278
0.0489589
0.0489893
0.0490191
0.0490484
0.0490771
0.0491053
0.049133
0.0491601
0.0491868
0.049213
0.0492387
0.049264
0.0492888
0.0493133
0.0493373
0.0493609
0.0493842
0.0494071
0.0494296
0.0494517
0.0494736
0.0494952
0.0495165
0.0495375
0.049558
0.0495779
0.0495969
0.0496153
0.0496338
0.0496538
0.0496777
0.0497083
0.0497482
0.049798
0.0498537
0.0499073
0.0499504
0.0499785
0.049993
0.0499984
0.0499998
0.05
0.05
0.05
0.05
0.05
0.05
0.05
0.05
0.05
0.05
0.05
0.05
0.05
0.05
0.05
0.05
0.05
0.05
0.05
0.05
0.05
0.05
0.05
0.05
0.05
0.05
0.05
0.05
0.05
0.05
0.05
0.05
0.05
0.05
0.05
0.05
0.05
0.0376672
0.0376672
0.0376672
0.0376672
0.0376672
0.0376672
0.0376672
0.0376672
0.0376673
0.037668
0.0376723
0.0376871
0.0377231
0.0377928
0.0379079
0.0380767
0.0383029
0.0385846
0.0389153
0.0392851
0.0396826
0.0400966
0.040517
0.0409351
0.0413447
0.0417411
0.0421212
0.0424833
0.0428264
0.0431506
0.0434561
0.0437435
0.0440139
0.044268
0.0445069
0.0447317
0.0449432
0.0451424
0.0453302
0.0455075
0.0456748
0.0458331
0.0459829
0.0461247
0.0462593
0.046387
0.0465083
0.0466237
0.0467336
0.0468383
0.0469381
0.0470334
0.0471245
0.0472116
0.047295
0.0473749
0.0474516
0.0475253
0.0475962
0.0476644
0.0477301
0.0477934
0.0478546
0.0479137
0.0479709
0.0480263
0.0480799
0.0481319
0.0481823
0.0482313
0.0482789
0.0483252
0.0483702
0.048414
0.0484567
0.0484983
0.0485389
0.0485785
0.0486171
0.0486549
0.0486917
0.0487278
0.048763
0.0487975
0.0488312
0.0488642
0.0488965
0.0489282
0.0489592
0.0489896
0.0490195
0.0490487
0.0490774
0.0491056
0.0491332
0.0491604
0.049187
0.0492132
0.0492389
0.0492642
0.049289
0.0493134
0.0493375
0.0493611
0.0493843
0.0494072
0.0494297
0.0494519
0.0494737
0.0494953
0.0495166
0.0495376
0.0495581
0.0495779
0.049597
0.0496154
0.0496339
0.0496539
0.0496778
0.0497083
0.0497483
0.049798
0.0498537
0.0499073
0.0499504
0.0499785
0.049993
0.0499984
0.0499998
0.05
0.05
0.05
0.05
0.05
0.05
0.05
0.05
0.05
0.05
0.05
0.05
0.05
0.05
0.05
0.05
0.05
0.05
0.05
0.05
0.05
0.05
0.05
0.05
0.05
0.05
0.05
0.05
0.05
0.05
0.05
0.05
0.05
0.05
0.05
0.05
0.05
0.0382949
0.0382949
0.0382949
0.0382949
0.0382949
0.038295
0.038295