/*--------------------------------*- C++ -*----------------------------------*\
  =========                 |
  \\      /  F ield         | OpenFOAM: The Open Source CFD Toolbox
   \\    /   O peration     | Website:  https://openfoam.org
    \\  /    A nd           | Version:  13
     \\/     M anipulation  |
\*---------------------------------------------------------------------------*/
FoamFile
{
    format      ascii;
    class       volScalarField;
    location    "0.0013";
    object      CO2;
}
// * * * * * * * * * * * * * * * * * * * * * * * * * * * * * * * * * * * * * //

dimensions      [];

internalField   nonuniform List<scalar> 
33334
(
0.0419402
0.0419402
0.0419402
0.0419402
0.0419402
0.0419402
0.0419402
0.0419402
0.0419398
0.041935
0.0419076
0.0418168
0.0416029
0.0412018
0.0405608
0.0396524
0.038481
0.0370816
0.0355104
0.0338324
0.0321104
0.0303968
0.0287312
0.0271399
0.0256382
0.024233
0.0229253
0.0217125
0.0205897
0.0195507
0.018589
0.0176982
0.0168721
0.0161048
0.0153909
0.0147257
0.0141047
0.013524
0.0129801
0.0124697
0.01199
0.0115385
0.0111129
0.010711
0.0103312
0.00997164
0.00963088
0.00930754
0.00900039
0.00870828
0.00843018
0.00816513
0.00791224
0.00767069
0.0074397
0.00721855
0.00700657
0.00680312
0.00660762
0.00641953
0.00623839
0.00606377
0.00589525
0.00573244
0.00557502
0.00542266
0.00527506
0.00513198
0.00499316
0.00485837
0.00472742
0.0046001
0.00447624
0.00435568
0.00423825
0.00412381
0.00401223
0.00390338
0.00379714
0.00369341
0.00359208
0.00349305
0.00339622
0.00330152
0.00320885
0.00311814
0.00302932
0.00294232
0.00285707
0.0027735
0.00269157
0.00261121
0.00253238
0.00245502
0.00237909
0.00230455
0.00223136
0.00215947
0.00208884
0.00201944
0.00195122
0.00188415
0.00181819
0.00175332
0.00168951
0.00162675
0.001565
0.00150417
0.00144418
0.00138492
0.00132639
0.00126876
0.00121247
0.00115806
0.00110586
0.00105535
0.00100455
0.000949495
0.000883973
0.00080001
0.000690337
0.00055375
0.000400917
0.000253894
0.000135852
5.87022e-05
1.91654e-05
4.28213e-06
5.68613e-07
3.71023e-08
9.44637e-10
7.51246e-12
2.32644e-13
2.1935e-13
2.19237e-13
2.18758e-13
2.16701e-13
2.11614e-13
2.02979e-13
1.9165e-13
1.79286e-13
1.67366e-13
1.56596e-13
1.46955e-13
1.38066e-13
1.29522e-13
1.21039e-13
1.12489e-13
1.03866e-13
9.52223e-14
8.66275e-14
7.81316e-14
6.97589e-14
6.15093e-14
5.33668e-14
4.53086e-14
3.73171e-14
2.93985e-14
2.16142e-14
1.41534e-14
7.49801e-15
2.60407e-15
3.80348e-16
1.80302e-17
6.42766e-18
6.33937e-18
0.0419402
0.0419402
0.0419402
0.0419402
0.0419402
0.0419402
0.0419402
0.0419402
0.0419398
0.041935
0.0419076
0.0418168
0.0416029
0.0412018
0.0405608
0.0396524
0.038481
0.0370816
0.0355104
0.0338324
0.0321104
0.0303968
0.0287312
0.0271399
0.0256382
0.024233
0.0229253
0.0217126
0.0205897
0.0195507
0.018589
0.0176982
0.0168721
0.0161048
0.0153909
0.0147257
0.0141048
0.0135241
0.0129801
0.0124697
0.01199
0.0115385
0.0111129
0.0107111
0.0103312
0.00997167
0.00963091
0.00930757
0.00900042
0.00870831
0.00843021
0.00816516
0.00791228
0.00767073
0.00743974
0.00721859
0.00700661
0.00680316
0.00660766
0.00641957
0.00623844
0.00606381
0.00589529
0.00573249
0.00557507
0.0054227
0.00527511
0.00513203
0.00499321
0.00485842
0.00472747
0.00460015
0.00447629
0.00435573
0.0042383
0.00412386
0.00401228
0.00390343
0.0037972
0.00369347
0.00359213
0.0034931
0.00339628
0.00330157
0.0032089
0.0031182
0.00302938
0.00294238
0.00285712
0.00277356
0.00269162
0.00261127
0.00253243
0.00245508
0.00237915
0.00230461
0.00223142
0.00215953
0.0020889
0.0020195
0.00195128
0.00188421
0.00181825
0.00175338
0.00168957
0.00162681
0.00156506
0.00150423
0.00144424
0.00138498
0.00132645
0.00126882
0.00121253
0.00115812
0.00110592
0.00105541
0.00100461
0.000949561
0.000884055
0.000800114
0.000690466
0.000553892
0.000401051
0.000253999
0.000135917
5.8734e-05
1.91769e-05
4.28503e-06
5.69063e-07
3.71383e-08
9.45779e-10
7.52336e-12
2.32664e-13
2.19346e-13
2.19233e-13
2.18754e-13
2.16698e-13
2.11612e-13
2.02978e-13
1.91651e-13
1.79286e-13
1.67367e-13
1.56596e-13
1.46954e-13
1.38065e-13
1.29521e-13
1.21038e-13
1.12489e-13
1.03865e-13
9.52218e-14
8.66271e-14
7.81312e-14
6.97585e-14
6.15089e-14
5.33665e-14
4.53083e-14
3.73169e-14
2.93983e-14
2.16141e-14
1.41533e-14
7.498e-15
2.60408e-15
3.80353e-16
1.80306e-17
6.42766e-18
6.33937e-18
0.0419402
0.0419402
0.0419402
0.0419402
0.0419402
0.0419402
0.0419402
0.0419402
0.0419398
0.041935
0.0419076
0.0418168
0.0416029
0.0412018
0.0405608
0.0396524
0.038481
0.0370816
0.0355104
0.0338324
0.0321104
0.0303968
0.0287312
0.0271399
0.0256382
0.024233
0.0229253
0.0217126
0.0205897
0.0195507
0.018589
0.0176982
0.0168721
0.0161048
0.015391
0.0147257
0.0141048
0.0135241
0.0129801
0.0124697
0.0119901
0.0115385
0.0111129
0.0107111
0.0103312
0.00997169
0.00963093
0.0093076
0.00900044
0.00870834
0.00843024
0.00816519
0.00791231
0.00767075
0.00743977
0.00721862
0.00700664
0.0068032
0.00660769
0.00641961
0.00623847
0.00606385
0.00589533
0.00573253
0.00557511
0.00542274
0.00527515
0.00513207
0.00499325
0.00485847
0.00472752
0.0046002
0.00447634
0.00435578
0.00423835
0.00412391
0.00401233
0.00390349
0.00379725
0.00369352
0.00359219
0.00349316
0.00339633
0.00330163
0.00320897
0.00311826
0.00302944
0.00294244
0.00285719
0.00277362
0.00269169
0.00261133
0.0025325
0.00245514
0.00237922
0.00230468
0.00223149
0.0021596
0.00208897
0.00201957
0.00195135
0.00188428
0.00181832
0.00175345
0.00168965
0.00162689
0.00156513
0.00150431
0.00144432
0.00138506
0.00132653
0.0012689
0.00121261
0.0011582
0.00110599
0.00105548
0.00100468
0.000949648
0.000884163
0.000800256
0.000690644
0.000554097
0.000401254
0.000254166
0.000136028
5.87915e-05
1.91989e-05
4.29075e-06
5.69944e-07
3.72054e-08
9.47785e-10
7.54165e-12
2.32693e-13
2.19336e-13
2.19223e-13
2.18744e-13
2.1669e-13
2.11606e-13
2.02974e-13
1.91648e-13
1.79284e-13
1.67364e-13
1.56593e-13
1.46951e-13
1.38062e-13
1.29518e-13
1.21036e-13
1.12487e-13
1.03863e-13
9.52199e-14
8.66253e-14
7.81297e-14
6.97571e-14
6.15078e-14
5.33655e-14
4.53075e-14
3.73163e-14
2.93979e-14
2.16139e-14
1.41532e-14
7.49798e-15
2.60409e-15
3.8036e-16
1.8031e-17
6.42767e-18
6.33937e-18
0.0419402
0.0419402
0.0419402
0.0419402
0.0419402
0.0419402
0.0419402
0.0419402
0.0419398
0.041935
0.0419076
0.0418168
0.0416029
0.0412018
0.0405608
0.0396524
0.038481
0.0370816
0.0355104
0.0338324
0.0321103
0.0303968
0.0287312
0.0271399
0.0256382
0.024233
0.0229253
0.0217125
0.0205897
0.0195507
0.018589
0.0176982
0.0168721
0.0161048
0.0153909
0.0147257
0.0141048
0.0135241
0.0129801
0.0124697
0.0119901
0.0115385
0.0111129
0.0107111
0.0103312
0.00997169
0.00963093
0.0093076
0.00900045
0.00870834
0.00843024
0.0081652
0.00791231
0.00767076
0.00743978
0.00721863
0.00700665
0.00680321
0.0066077
0.00641962
0.00623848
0.00606386
0.00589534
0.00573254
0.00557512
0.00542276
0.00527517
0.00513209
0.00499327
0.00485849
0.00472754
0.00460022
0.00447637
0.0043558
0.00423837
0.00412394
0.00401236
0.00390351
0.00379728
0.00369355
0.00359222
0.00349319
0.00339636
0.00330166
0.003209
0.00311829
0.00302947
0.00294247
0.00285722
0.00277366
0.00269173
0.00261137
0.00253254
0.00245518
0.00237926
0.00230472
0.00223153
0.00215964
0.00208901
0.00201961
0.00195139
0.00188432
0.00181837
0.0017535
0.00168969
0.00162693
0.00156517
0.00150435
0.00144436
0.00138511
0.00132658
0.00126895
0.00121265
0.00115824
0.00110604
0.00105552
0.00100473
0.000949704
0.000884235
0.000800353
0.000690771
0.000554249
0.000401411
0.000254301
0.000136122
5.8843e-05
1.92196e-05
4.29632e-06
5.7082e-07
3.72724e-08
9.49773e-10
7.55946e-12
2.3272e-13
2.19326e-13
2.19213e-13
2.18734e-13
2.16681e-13
2.11598e-13
2.02968e-13
1.91642e-13
1.79279e-13
1.6736e-13
1.56589e-13
1.46947e-13
1.38059e-13
1.29515e-13
1.21033e-13
1.12484e-13
1.0386e-13
9.52179e-14
8.66236e-14
7.81283e-14
6.9756e-14
6.15068e-14
5.33648e-14
4.5307e-14
3.73159e-14
2.93977e-14
2.16138e-14
1.41532e-14
7.498e-15
2.60412e-15
3.80368e-16
1.80314e-17
6.42767e-18
6.33937e-18
0.0419402
0.0419402
0.0419402
0.0419402
0.0419402
0.0419402
0.0419402
0.0419402
0.0419398
0.041935
0.0419076
0.0418168
0.0416029
0.0412018
0.0405608
0.0396524
0.038481
0.0370816
0.0355104
0.0338324
0.0321103
0.0303968
0.0287312
0.0271399
0.0256382
0.024233
0.0229253
0.0217125
0.0205897
0.0195507
0.018589
0.0176982
0.0168721
0.0161048
0.0153909
0.0147257
0.0141048
0.0135241
0.0129801
0.0124697
0.0119901
0.0115385
0.0111129
0.0107111
0.0103312
0.00997169
0.00963093
0.0093076
0.00900045
0.00870834
0.00843024
0.0081652
0.00791231
0.00767076
0.00743978
0.00721863
0.00700665
0.00680321
0.00660771
0.00641962
0.00623849
0.00606387
0.00589534
0.00573255
0.00557513
0.00542276
0.00527518
0.00513209
0.00499327
0.00485849
0.00472754
0.00460023
0.00447637
0.00435581
0.00423838
0.00412394
0.00401237
0.00390352
0.00379729
0.00369356
0.00359223
0.0034932
0.00339637
0.00330167
0.00320901
0.0031183
0.00302948
0.00294248
0.00285723
0.00277367
0.00269174
0.00261138
0.00253255
0.00245519
0.00237927
0.00230473
0.00223154
0.00215965
0.00208903
0.00201963
0.00195141
0.00188434
0.00181838
0.00175351
0.00168971
0.00162695
0.00156519
0.00150437
0.00144438
0.00138513
0.00132659
0.00126897
0.00121267
0.00115826
0.00110605
0.00105554
0.00100475
0.000949725
0.000884264
0.000800394
0.000690828
0.00055432
0.000401488
0.00025437
0.000136172
5.88712e-05
1.92314e-05
4.29962e-06
5.71363e-07
3.73156e-08
9.51101e-10
7.57165e-12
2.3274e-13
2.19319e-13
2.19206e-13
2.18727e-13
2.16675e-13
2.11592e-13
2.02963e-13
1.91638e-13
1.79276e-13
1.67356e-13
1.56586e-13
1.46945e-13
1.38056e-13
1.29513e-13
1.21031e-13
1.12482e-13
1.03859e-13
9.52169e-14
8.66229e-14
7.81277e-14
6.97555e-14
6.15065e-14
5.33646e-14
4.53068e-14
3.73158e-14
2.93977e-14
2.16138e-14
1.41532e-14
7.49804e-15
2.60415e-15
3.80375e-16
1.80318e-17
6.42767e-18
6.33937e-18
0.0419402
0.0419402
0.0419402
0.0419402
0.0419402
0.0419402
0.0419402
0.0419402
0.0419398
0.041935
0.0419076
0.0418168
0.0416029
0.0412018
0.0405608
0.0396524
0.038481
0.0370816
0.0355104
0.0338324
0.0321103
0.0303968
0.0287311
0.0271398
0.0256381
0.0242329
0.0229253
0.0217125
0.0205897
0.0195507
0.018589
0.0176982
0.0168721
0.0161048
0.0153909
0.0147257
0.0141048
0.0135241
0.0129801
0.0124697
0.0119901
0.0115385
0.0111129
0.0107111
0.0103312
0.00997169
0.00963093
0.0093076
0.00900044
0.00870834
0.00843024
0.0081652
0.00791231
0.00767076
0.00743977
0.00721863
0.00700665
0.00680321
0.00660771
0.00641962
0.00623849
0.00606387
0.00589534
0.00573255
0.00557513
0.00542276
0.00527518
0.00513209
0.00499327
0.00485849
0.00472754
0.00460023
0.00447637
0.00435581
0.00423838
0.00412394
0.00401237
0.00390352
0.00379729
0.00369356
0.00359223
0.0034932
0.00339637
0.00330167
0.00320901
0.0031183
0.00302949
0.00294248
0.00285723
0.00277367
0.00269174
0.00261138
0.00253255
0.0024552
0.00237927
0.00230473
0.00223154
0.00215965
0.00208903
0.00201963
0.00195141
0.00188434
0.00181839
0.00175352
0.00168971
0.00162695
0.0015652
0.00150438
0.00144439
0.00138513
0.0013266
0.00126897
0.00121268
0.00115826
0.00110606
0.00105554
0.00100475
0.000949729
0.000884271
0.000800404
0.000690844
0.000554341
0.000401512
0.000254392
0.000136189
5.88809e-05
1.92356e-05
4.30087e-06
5.71583e-07
3.73346e-08
9.51724e-10
7.57773e-12
2.32751e-13
2.19317e-13
2.19204e-13
2.18725e-13
2.16672e-13
2.1159e-13
2.02961e-13
1.91637e-13
1.79274e-13
1.67355e-13
1.56585e-13
1.46944e-13
1.38056e-13
1.29512e-13
1.21031e-13
1.12482e-13
1.03859e-13
9.52168e-14
8.66228e-14
7.81276e-14
6.97555e-14
6.15065e-14
5.33646e-14
4.53069e-14
3.73159e-14
2.93977e-14
2.16138e-14
1.41533e-14
7.49809e-15
2.60417e-15
3.80382e-16
1.80321e-17
6.42768e-18
6.33937e-18
0.0419402
0.0419402
0.0419402
0.0419402
0.0419402
0.0419402
0.0419402
0.0419402
0.0419398
0.041935
0.0419076
0.0418168
0.0416029
0.0412018
0.0405608
0.0396524
0.038481
0.0370816
0.0355103
0.0338324
0.0321103
0.0303967
0.0287311
0.0271398
0.0256381
0.0242329
0.0229253
0.0217125
0.0205897
0.0195507
0.018589
0.0176982
0.0168721
0.0161048
0.0153909
0.0147257
0.0141048
0.0135241
0.0129801
0.0124697
0.01199
0.0115385
0.0111129
0.0107111
0.0103312
0.00997169
0.00963093
0.00930759
0.00900044
0.00870834
0.00843024
0.00816519
0.00791231
0.00767076
0.00743977
0.00721862
0.00700665
0.00680321
0.0066077
0.00641962
0.00623849
0.00606386
0.00589534
0.00573255
0.00557512
0.00542276
0.00527517
0.00513209
0.00499327
0.00485849
0.00472754
0.00460023
0.00447637
0.00435581
0.00423838
0.00412394
0.00401237
0.00390352
0.00379729
0.00369356
0.00359223
0.0034932
0.00339637
0.00330167
0.00320901
0.0031183
0.00302949
0.00294248
0.00285723
0.00277367
0.00269174
0.00261138
0.00253255
0.0024552
0.00237927
0.00230473
0.00223154
0.00215965
0.00208903
0.00201963
0.00195141
0.00188434
0.00181839
0.00175352
0.00168971
0.00162695
0.0015652
0.00150438
0.00144439
0.00138513
0.0013266
0.00126897
0.00121268
0.00115827
0.00110606
0.00105554
0.00100475
0.000949729
0.000884271
0.000800405
0.000690846
0.000554344
0.000401516
0.000254396
0.000136192
5.88827e-05
1.92365e-05
4.30116e-06
5.71643e-07
3.73404e-08
9.5194e-10
7.58001e-12
2.32756e-13
2.19316e-13
2.19203e-13
2.18724e-13
2.16672e-13
2.1159e-13
2.02961e-13
1.91636e-13
1.79274e-13
1.67355e-13
1.56585e-13
1.46944e-13
1.38056e-13
1.29512e-13
1.21031e-13
1.12482e-13
1.03859e-13
9.52168e-14
8.66228e-14
7.81277e-14
6.97555e-14
6.15066e-14
5.33647e-14
4.53069e-14
3.73159e-14
2.93978e-14
2.16139e-14
1.41533e-14
7.49813e-15
2.6042e-15
3.80389e-16
1.80325e-17
6.42768e-18
6.33937e-18
0.0419402
0.0419402
0.0419402
0.0419402
0.0419402
0.0419402
0.0419402
0.0419402
0.0419398
0.041935
0.0419076
0.0418168
0.0416029
0.0412018
0.0405608
0.0396523
0.038481
0.0370816
0.0355103
0.0338324
0.0321103
0.0303967
0.0287311
0.0271398
0.0256381
0.0242329
0.0229253
0.0217125
0.0205897
0.0195506
0.018589
0.0176982
0.0168721
0.0161048
0.0153909
0.0147257
0.0141047
0.0135241
0.0129801
0.0124697
0.01199
0.0115385
0.0111129
0.0107111
0.0103312
0.00997168
0.00963093
0.00930759
0.00900044
0.00870833
0.00843024
0.00816519
0.00791231
0.00767076
0.00743977
0.00721862
0.00700665
0.0068032
0.0066077
0.00641962
0.00623848
0.00606386
0.00589534
0.00573254
0.00557512
0.00542276
0.00527517
0.00513209
0.00499327
0.00485849
0.00472754
0.00460023
0.00447637
0.0043558
0.00423838
0.00412394
0.00401236
0.00390352
0.00379729
0.00369356
0.00359223
0.0034932
0.00339637
0.00330167
0.00320901
0.0031183
0.00302949
0.00294248
0.00285723
0.00277367
0.00269174
0.00261138
0.00253255
0.0024552
0.00237927
0.00230473
0.00223154
0.00215965
0.00208903
0.00201963
0.00195141
0.00188434
0.00181839
0.00175352
0.00168971
0.00162695
0.0015652
0.00150438
0.00144439
0.00138513
0.0013266
0.00126897
0.00121268
0.00115826
0.00110606
0.00105554
0.00100475
0.000949728
0.00088427
0.000800404
0.000690844
0.000554343
0.000401514
0.000254394
0.000136191
5.88825e-05
1.92365e-05
4.30119e-06
5.71654e-07
3.73418e-08
9.52e-10
7.58074e-12
2.32759e-13
2.19316e-13
2.19203e-13
2.18725e-13
2.16672e-13
2.1159e-13
2.02961e-13
1.91637e-13
1.79274e-13
1.67355e-13
1.56585e-13
1.46944e-13
1.38056e-13
1.29512e-13
1.21031e-13
1.12482e-13
1.03859e-13
9.52169e-14
8.66229e-14
7.81278e-14
6.97556e-14
6.15067e-14
5.33647e-14
4.5307e-14
3.7316e-14
2.93979e-14
2.1614e-14
1.41534e-14
7.49817e-15
2.60422e-15
3.80396e-16
1.80328e-17
6.42768e-18
6.33937e-18
0.0419398
0.0419398
0.0419398
0.0419398
0.0419398
0.0419398
0.0419398
0.0419398
0.0419395
0.0419346
0.0419073
0.0418164
0.0416025
0.0412014
0.0405605
0.039652
0.0384807
0.0370813
0.0355101
0.0338322
0.0321102
0.0303966
0.028731
0.0271398
0.0256381
0.0242329
0.0229253
0.0217125
0.0205896
0.0195506
0.018589
0.0176982
0.0168721
0.0161047
0.0153909
0.0147257
0.0141047
0.0135241
0.0129801
0.0124697
0.01199
0.0115385
0.0111129
0.0107111
0.0103312
0.00997168
0.00963092
0.00930759
0.00900044
0.00870833
0.00843023
0.00816519
0.00791231
0.00767076
0.00743977
0.00721862
0.00700664
0.0068032
0.0066077
0.00641961
0.00623848
0.00606386
0.00589534
0.00573254
0.00557512
0.00542276
0.00527517
0.00513209
0.00499327
0.00485849
0.00472754
0.00460022
0.00447637
0.0043558
0.00423838
0.00412394
0.00401236
0.00390352
0.00379729
0.00369356
0.00359223
0.0034932
0.00339637
0.00330167
0.00320901
0.0031183
0.00302948
0.00294248
0.00285723
0.00277367
0.00269174
0.00261138
0.00253255
0.0024552
0.00237927
0.00230473
0.00223154
0.00215965
0.00208903
0.00201963
0.00195141
0.00188434
0.00181839
0.00175352
0.00168971
0.00162695
0.0015652
0.00150438
0.00144439
0.00138513
0.0013266
0.00126897
0.00121267
0.00115826
0.00110605
0.00105554
0.00100475
0.000949726
0.000884267
0.000800401
0.00069084
0.000554338
0.000401509
0.00025439
0.000136188
5.88813e-05
1.92361e-05
4.30114e-06
5.71651e-07
3.7342e-08
9.52018e-10
7.58101e-12
2.3276e-13
2.19317e-13
2.19204e-13
2.18725e-13
2.16672e-13
2.1159e-13
2.02961e-13
1.91637e-13
1.79275e-13
1.67356e-13
1.56585e-13
1.46944e-13
1.38056e-13
1.29513e-13
1.21031e-13
1.12482e-13
1.03859e-13
9.52171e-14
8.66231e-14
7.81279e-14
6.97558e-14
6.15068e-14
5.33648e-14
4.53071e-14
3.73161e-14
2.93979e-14
2.1614e-14
1.41534e-14
7.49821e-15
2.60425e-15
3.80402e-16
1.80332e-17
6.42769e-18
6.33937e-18
0.041935
0.041935
0.041935
0.041935
0.041935
0.041935
0.041935
0.041935
0.0419346
0.0419298
0.0419024
0.0418116
0.0415978
0.041197
0.0405563
0.0396482
0.0384773
0.0370784
0.0355077
0.0338302
0.0321086
0.0303954
0.0287301
0.027139
0.0256375
0.0242325
0.0229249
0.0217122
0.0205894
0.0195505
0.0185889
0.0176981
0.016872
0.0161047
0.0153909
0.0147257
0.0141047
0.013524
0.0129801
0.0124697
0.01199
0.0115385
0.0111129
0.0107111
0.0103312
0.00997168
0.00963092
0.00930759
0.00900043
0.00870833
0.00843023
0.00816519
0.0079123
0.00767075
0.00743977
0.00721862
0.00700664
0.0068032
0.0066077
0.00641961
0.00623848
0.00606386
0.00589534
0.00573254
0.00557512
0.00542276
0.00527517
0.00513209
0.00499327
0.00485849
0.00472754
0.00460022
0.00447637
0.0043558
0.00423838
0.00412394
0.00401236
0.00390352
0.00379729
0.00369356
0.00359223
0.00349319
0.00339637
0.00330167
0.00320901
0.0031183
0.00302948
0.00294248
0.00285723
0.00277367
0.00269174
0.00261138
0.00253255
0.0024552
0.00237927
0.00230473
0.00223154
0.00215965
0.00208903
0.00201963
0.00195141
0.00188434
0.00181839
0.00175352
0.00168971
0.00162695
0.0015652
0.00150437
0.00144439
0.00138513
0.0013266
0.00126897
0.00121267
0.00115826
0.00110605
0.00105554
0.00100475
0.000949724
0.000884264
0.000800396
0.000690834
0.000554331
0.000401502
0.000254384
0.000136184
5.88794e-05
1.92355e-05
4.301e-06
5.71637e-07
3.73415e-08
9.52018e-10
7.58112e-12
2.32761e-13
2.19317e-13
2.19204e-13
2.18726e-13
2.16673e-13
2.11591e-13
2.02962e-13
1.91638e-13
1.79275e-13
1.67356e-13
1.56586e-13
1.46945e-13
1.38056e-13
1.29513e-13
1.21031e-13
1.12483e-13
1.0386e-13
9.52172e-14
8.66232e-14
7.81281e-14
6.97559e-14
6.15069e-14
5.33649e-14
4.53072e-14
3.73162e-14
2.9398e-14
2.16141e-14
1.41535e-14
7.49826e-15
2.60427e-15
3.80408e-16
1.80335e-17
6.42769e-18
6.33937e-18
0.0419076
0.0419076
0.0419076
0.0419076
0.0419076
0.0419076
0.0419076
0.0419076
0.0419073
0.0419024
0.0418752
0.0417846
0.0415714
0.0411716
0.0405324
0.0396264
0.0384579
0.0370616
0.0354935
0.0338185
0.0320991
0.0303878
0.0287241
0.0271343
0.0256339
0.0242296
0.0229227
0.0217105
0.0205881
0.0195495
0.0185881
0.0176975
0.0168715
0.0161043
0.0153906
0.0147255
0.0141045
0.0135239
0.01298
0.0124696
0.01199
0.0115385
0.0111129
0.010711
0.0103312
0.00997166
0.00963091
0.00930757
0.00900042
0.00870832
0.00843023
0.00816518
0.0079123
0.00767075
0.00743976
0.00721862
0.00700664
0.0068032
0.0066077
0.00641961
0.00623848
0.00606386
0.00589534
0.00573254
0.00557512
0.00542276
0.00527517
0.00513209
0.00499327
0.00485849
0.00472754
0.00460022
0.00447637
0.0043558
0.00423837
0.00412394
0.00401236
0.00390352
0.00379728
0.00369356
0.00359222
0.00349319
0.00339637
0.00330167
0.003209
0.0031183
0.00302948
0.00294248
0.00285723
0.00277367
0.00269174
0.00261138
0.00253255
0.00245519
0.00237927
0.00230473
0.00223154
0.00215965
0.00208903
0.00201963
0.00195141
0.00188434
0.00181839
0.00175351
0.00168971
0.00162695
0.00156519
0.00150437
0.00144438
0.00138513
0.0013266
0.00126897
0.00121267
0.00115826
0.00110605
0.00105554
0.00100474
0.000949722
0.000884261
0.000800392
0.000690828
0.000554324
0.000401495
0.000254378
0.00013618
5.88772e-05
1.92347e-05
4.30081e-06
5.71613e-07
3.73402e-08
9.51996e-10
7.58105e-12
2.32762e-13
2.19318e-13
2.19205e-13
2.18727e-13
2.16674e-13
2.11592e-13
2.02963e-13
1.91638e-13
1.79276e-13
1.67357e-13
1.56586e-13
1.46945e-13
1.38057e-13
1.29513e-13
1.21031e-13
1.12483e-13
1.0386e-13
9.52174e-14
8.66234e-14
7.81282e-14
6.9756e-14
6.1507e-14
5.3365e-14
4.53073e-14
3.73163e-14
2.93981e-14
2.16141e-14
1.41536e-14
7.4983e-15
2.6043e-15
3.80414e-16
1.80338e-17
6.42769e-18
6.33937e-18
0.0418168
0.0418168
0.0418168
0.0418168
0.0418168
0.0418168
0.0418168
0.0418168
0.0418164
0.0418116
0.0417846
0.0416949
0.0414836
0.0410869
0.0404527
0.0395531
0.0383923
0.0370044
0.0354448
0.0337779
0.0320658
0.0303609
0.0287026
0.0271173
0.0256203
0.0242189
0.0229143
0.0217039
0.0205829
0.0195453
0.0185848
0.0176949
0.0168694
0.0161027
0.0153893
0.0147244
0.0141037
0.0135232
0.0129794
0.0124692
0.0119896
0.0115382
0.0111126
0.0107109
0.0103311
0.00997154
0.00963081
0.0093075
0.00900037
0.00870827
0.00843019
0.00816515
0.00791227
0.00767073
0.00743975
0.0072186
0.00700663
0.00680319
0.00660769
0.0064196
0.00623847
0.00606385
0.00589533
0.00573254
0.00557512
0.00542276
0.00527517
0.00513209
0.00499327
0.00485849
0.00472754
0.00460022
0.00447637
0.0043558
0.00423837
0.00412394
0.00401236
0.00390352
0.00379728
0.00369355
0.00359222
0.00349319
0.00339637
0.00330167
0.003209
0.0031183
0.00302948
0.00294248
0.00285723
0.00277367
0.00269174
0.00261138
0.00253255
0.00245519
0.00237927
0.00230473
0.00223154
0.00215965
0.00208903
0.00201963
0.00195141
0.00188434
0.00181839
0.00175351
0.00168971
0.00162695
0.00156519
0.00150437
0.00144438
0.00138513
0.00132659
0.00126897
0.00121267
0.00115826
0.00110605
0.00105554
0.00100474
0.00094972
0.000884259
0.000800389
0.000690824
0.000554319
0.000401489
0.000254373
0.000136177
5.88755e-05
1.9234e-05
4.30065e-06
5.71589e-07
3.73386e-08
9.51957e-10
7.5808e-12
2.32762e-13
2.19319e-13
2.19206e-13
2.18727e-13
2.16675e-13
2.11593e-13
2.02964e-13
1.91639e-13
1.79277e-13
1.67357e-13
1.56587e-13
1.46945e-13
1.38057e-13
1.29514e-13
1.21032e-13
1.12483e-13
1.0386e-13
9.52176e-14
8.66235e-14
7.81283e-14
6.97561e-14
6.15071e-14
5.33651e-14
4.53074e-14
3.73163e-14
2.93981e-14
2.16142e-14
1.41536e-14
7.49834e-15
2.60432e-15
3.80421e-16
1.80341e-17
6.42769e-18
6.33937e-18
0.0416029
0.0416029
0.0416029
0.0416029
0.0416029
0.0416029
0.0416029
0.0416029
0.0416025
0.0415978
0.0415714
0.0414836
0.0412763
0.040887
0.0402638
0.0393789
0.0382356
0.036867
0.0353271
0.0336791
0.0319842
0.0302944
0.0286488
0.027074
0.0255857
0.0241913
0.0228922
0.0216862
0.0205687
0.0195339
0.0185756
0.0176875
0.0168634
0.0160978
0.0153853
0.0147212
0.0141011
0.0135211
0.0129777
0.0124677
0.0119884
0.0115372
0.0111118
0.0107102
0.0103305
0.0099711
0.00963045
0.0093072
0.00900012
0.00870807
0.00843002
0.00816501
0.00791216
0.00767063
0.00743966
0.00721853
0.00700657
0.00680314
0.00660765
0.00641957
0.00623844
0.00606383
0.00589531
0.00573252
0.0055751
0.00542274
0.00527516
0.00513208
0.00499326
0.00485848
0.00472753
0.00460022
0.00447636
0.0043558
0.00423837
0.00412394
0.00401236
0.00390351
0.00379728
0.00369355
0.00359222
0.00349319
0.00339637
0.00330167
0.003209
0.0031183
0.00302948
0.00294248
0.00285723
0.00277367
0.00269174
0.00261138
0.00253255
0.00245519
0.00237927
0.00230473
0.00223154
0.00215965
0.00208903
0.00201963
0.00195141
0.00188434
0.00181838
0.00175351
0.00168971
0.00162695
0.00156519
0.00150437
0.00144438
0.00138513
0.00132659
0.00126897
0.00121267
0.00115826
0.00110605
0.00105554
0.00100474
0.000949719
0.000884257
0.000800386
0.000690821
0.000554315
0.000401485
0.00025437
0.000136175
5.88743e-05
1.92335e-05
4.30053e-06
5.71572e-07
3.73373e-08
9.51923e-10
7.58052e-12
2.32762e-13
2.1932e-13
2.19207e-13
2.18728e-13
2.16675e-13
2.11593e-13
2.02964e-13
1.9164e-13
1.79277e-13
1.67358e-13
1.56587e-13
1.46946e-13
1.38057e-13
1.29514e-13
1.21032e-13
1.12483e-13
1.0386e-13
9.52178e-14
8.66237e-14
7.81285e-14
6.97563e-14
6.15072e-14
5.33653e-14
4.53075e-14
3.73164e-14
2.93982e-14
2.16143e-14
1.41537e-14
7.49838e-15
2.60434e-15
3.80426e-16
1.80344e-17
6.4277e-18
6.33937e-18
0.0412018
0.0412018
0.0412018
0.0412018
0.0412018
0.0412018
0.0412018
0.0412018
0.0412014
0.041197
0.0411716
0.0410869
0.040887
0.0405108
0.0399075
0.0390491
0.0379378
0.0366045
0.0351009
0.0334878
0.0318251
0.0301635
0.0285422
0.0269876
0.0255158
0.0241348
0.0228466
0.0216493
0.0205388
0.0195096
0.0185558
0.0176713
0.0168502
0.0160869
0.0153763
0.0147138
0.0140949
0.013516
0.0129735
0.0124642
0.0119855
0.0115348
0.0111098
0.0107085
0.0103291
0.0099699
0.00962944
0.00930635
0.0089994
0.00870747
0.00842951
0.00816458
0.00791179
0.00767032
0.00743939
0.0072183
0.00700636
0.00680296
0.00660749
0.00641943
0.00623832
0.00606372
0.00589521
0.00573243
0.00557502
0.00542268
0.0052751
0.00513203
0.00499322
0.00485844
0.0047275
0.00460019
0.00447634
0.00435578
0.00423835
0.00412392
0.00401235
0.0039035
0.00379727
0.00369354
0.00359222
0.00349319
0.00339636
0.00330166
0.003209
0.0031183
0.00302948
0.00294248
0.00285723
0.00277367
0.00269173
0.00261138
0.00253255
0.00245519
0.00237927
0.00230473
0.00223154
0.00215965
0.00208903
0.00201963
0.00195141
0.00188434
0.00181838
0.00175351
0.00168971
0.00162695
0.00156519
0.00150437
0.00144438
0.00138513
0.00132659
0.00126897
0.00121267
0.00115826
0.00110605
0.00105553
0.00100474
0.000949718
0.000884256
0.000800384
0.000690818
0.000554312
0.000401482
0.000254368
0.000136173
5.88735e-05
1.92332e-05
4.30045e-06
5.7156e-07
3.73365e-08
9.519e-10
7.58033e-12
2.32762e-13
2.1932e-13
2.19207e-13
2.18729e-13
2.16676e-13
2.11594e-13
2.02965e-13
1.9164e-13
1.79278e-13
1.67358e-13
1.56588e-13
1.46946e-13
1.38058e-13
1.29514e-13
1.21032e-13
1.12483e-13
1.0386e-13
9.5218e-14
8.66239e-14
7.81287e-14
6.97564e-14
6.15074e-14
5.33654e-14
4.53076e-14
3.73165e-14
2.93983e-14
2.16143e-14
1.41537e-14
7.49842e-15
2.60437e-15
3.80432e-16
1.80347e-17
6.4277e-18
6.33937e-18
0.0405608
0.0405608
0.0405608
0.0405608
0.0405608
0.0405608
0.0405608
0.0405608
0.0405605
0.0405563
0.0405324
0.0404527
0.0402638
0.0399075
0.0393344
0.0385168
0.0374549
0.0361767
0.0347299
0.0331722
0.0315605
0.0299445
0.0283622
0.0268406
0.0253961
0.0240374
0.0227672
0.0215846
0.0204859
0.0194663
0.0185202
0.017642
0.0168259
0.0160668
0.0153596
0.0146998
0.0140833
0.0135062
0.0129653
0.0124573
0.0119797
0.0115299
0.0111056
0.010705
0.0103261
0.00996737
0.00962729
0.00930452
0.00899784
0.00870613
0.00842836
0.00816358
0.00791093
0.00766957
0.00743873
0.00721772
0.00700585
0.00680249
0.00660707
0.00641906
0.00623798
0.00606342
0.00589494
0.00573218
0.0055748
0.00542247
0.00527492
0.00513186
0.00499307
0.00485831
0.00472738
0.00460008
0.00447624
0.00435569
0.00423828
0.00412385
0.00401228
0.00390345
0.00379722
0.0036935
0.00359218
0.00349315
0.00339633
0.00330164
0.00320898
0.00311828
0.00302946
0.00294246
0.00285722
0.00277365
0.00269172
0.00261137
0.00253254
0.00245519
0.00237926
0.00230473
0.00223153
0.00215965
0.00208902
0.00201962
0.00195141
0.00188434
0.00181838
0.00175351
0.00168971
0.00162695
0.00156519
0.00150437
0.00144438
0.00138513
0.00132659
0.00126896
0.00121267
0.00115826
0.00110605
0.00105553
0.00100474
0.000949717
0.000884255
0.000800383
0.000690817
0.00055431
0.00040148
0.000254366
0.000136172
5.88729e-05
1.9233e-05
4.3004e-06
5.71552e-07
3.7336e-08
9.51885e-10
7.58021e-12
2.32763e-13
2.19321e-13
2.19208e-13
2.18729e-13
2.16676e-13
2.11594e-13
2.02965e-13
1.91641e-13
1.79278e-13
1.67359e-13
1.56588e-13
1.46947e-13
1.38058e-13
1.29514e-13
1.21032e-13
1.12484e-13
1.03861e-13
9.52182e-14
8.66241e-14
7.81288e-14
6.97566e-14
6.15075e-14
5.33655e-14
4.53077e-14
3.73166e-14
2.93984e-14
2.16144e-14
1.41538e-14
7.49846e-15
2.60439e-15
3.80438e-16
1.8035e-17
6.4277e-18
6.33937e-18
0.0396524
0.0396524
0.0396524
0.0396524
0.0396524
0.0396524
0.0396524
0.0396523
0.039652
0.0396482
0.0396264
0.0395531
0.0393789
0.0390491
0.0385168
0.0377544
0.03676
0.0355573
0.0341894
0.032709
0.0311695
0.0296181
0.0280921
0.0266182
0.0252135
0.0238877
0.0226445
0.0214838
0.0204029
0.0193978
0.0184636
0.0175949
0.0167868
0.0160341
0.0153323
0.0146769
0.014064
0.0134899
0.0129515
0.0124456
0.0119698
0.0115214
0.0110984
0.0106988
0.0103208
0.00996284
0.0096234
0.00930117
0.00899495
0.00870363
0.00842619
0.0081617
0.00790928
0.00766811
0.00743744
0.00721657
0.00700481
0.00680156
0.00660622
0.00641828
0.00623728
0.00606277
0.00589434
0.00573164
0.0055743
0.00542201
0.00527449
0.00513147
0.00499271
0.00485798
0.00472708
0.00459981
0.00447599
0.00435546
0.00423807
0.00412366
0.00401211
0.00390329
0.00379708
0.00369337
0.00359206
0.00349304
0.00339624
0.00330155
0.0032089
0.0031182
0.0030294
0.0029424
0.00285716
0.00277361
0.00269168
0.00261133
0.00253251
0.00245516
0.00237924
0.0023047
0.00223151
0.00215963
0.00208901
0.00201961
0.00195139
0.00188433
0.00181837
0.0017535
0.0016897
0.00162694
0.00156519
0.00150437
0.00144438
0.00138512
0.00132659
0.00126896
0.00121267
0.00115826
0.00110605
0.00105553
0.00100474
0.000949716
0.000884253
0.000800381
0.000690815
0.000554308
0.000401478
0.000254364
0.000136171
5.88724e-05
1.92328e-05
4.30035e-06
5.71546e-07
3.73355e-08
9.51872e-10
7.5801e-12
2.32763e-13
2.19321e-13
2.19208e-13
2.1873e-13
2.16677e-13
2.11595e-13
2.02966e-13
1.91641e-13
1.79279e-13
1.67359e-13
1.56589e-13
1.46947e-13
1.38058e-13
1.29515e-13
1.21033e-13
1.12484e-13
1.03861e-13
9.52184e-14
8.66243e-14
7.8129e-14
6.97567e-14
6.15076e-14
5.33656e-14
4.53078e-14
3.73167e-14
2.93985e-14
2.16145e-14
1.41538e-14
7.49851e-15
2.60441e-15
3.80443e-16
1.80353e-17
6.4277e-18
6.33937e-18
0.038481
0.038481
0.038481
0.038481
0.038481
0.038481
0.038481
0.038481
0.0384807
0.0384773
0.0384579
0.0383923
0.0382356
0.0379378
0.0374549
0.03676
0.0358487
0.03474
0.0334709
0.0320885
0.0306414
0.0291738
0.0277213
0.0263105
0.024959
0.0236775
0.0224708
0.0213401
0.0202839
0.019299
0.0183813
0.0175262
0.0167292
0.0159858