/*--------------------------------*- C++ -*----------------------------------*\
  =========                 |
  \\      /  F ield         | OpenFOAM: The Open Source CFD Toolbox
   \\    /   O peration     | Website:  https://openfoam.org
    \\  /    A nd           | Version:  13
     \\/     M anipulation  |
\*---------------------------------------------------------------------------*/
FoamFile
{
    format      ascii;
    class       volScalarField;
    location    "0.0013";
    object      H2O;
}
// * * * * * * * * * * * * * * * * * * * * * * * * * * * * * * * * * * * * * //

dimensions      [];

internalField   nonuniform List<scalar> 
33334
(
0.0343361
0.0343361
0.0343361
0.0343361
0.0343361
0.0343361
0.0343361
0.0343361
0.0343358
0.0343318
0.0343094
0.034235
0.0340599
0.0337316
0.0332068
0.0324631
0.0315041
0.0303584
0.0290721
0.0276983
0.0262885
0.0248856
0.023522
0.0222192
0.0209898
0.0198393
0.0187688
0.0177759
0.0168566
0.016006
0.0152187
0.0144894
0.013813
0.0131848
0.0126004
0.0120558
0.0115474
0.011072
0.0106267
0.0102088
0.00981613
0.00944647
0.00909801
0.00876904
0.00845806
0.0081637
0.00788472
0.00762
0.00736854
0.00712939
0.00690171
0.00668472
0.00647768
0.00627993
0.00609082
0.00590976
0.00573622
0.00556966
0.0054096
0.00525561
0.00510732
0.00496435
0.00482639
0.0046931
0.00456422
0.00443948
0.00431865
0.00420151
0.00408785
0.00397751
0.0038703
0.00376606
0.00366466
0.00356595
0.00346981
0.00337612
0.00328478
0.00319566
0.00310869
0.00302376
0.0029408
0.00285973
0.00278046
0.00270292
0.00262706
0.0025528
0.00248008
0.00240885
0.00233906
0.00227064
0.00220356
0.00213777
0.00207323
0.0020099
0.00194774
0.00188672
0.00182679
0.00176794
0.00171012
0.0016533
0.00159745
0.00154254
0.00148854
0.00143543
0.00138319
0.00133181
0.00128125
0.00123145
0.00118234
0.00113382
0.0010859
0.00103872
0.000992638
0.000948097
0.00090536
0.000864006
0.000822414
0.000777343
0.000723701
0.000654961
0.000565173
0.00045335
0.000328227
0.000207861
0.00011122
4.8059e-05
1.56905e-05
3.50574e-06
4.65518e-07
3.03753e-08
7.73366e-10
6.15039e-12
1.90464e-13
1.7958e-13
1.79488e-13
1.79095e-13
1.77412e-13
1.73246e-13
1.66177e-13
1.56902e-13
1.4678e-13
1.37021e-13
1.28204e-13
1.20311e-13
1.13034e-13
1.06039e-13
9.90936e-14
9.20942e-14
8.50338e-14
7.79577e-14
7.09212e-14
6.39657e-14
5.7111e-14
5.03571e-14
4.36909e-14
3.70937e-14
3.05512e-14
2.40683e-14
1.76954e-14
1.15872e-14
6.13856e-15
2.13193e-15
3.11388e-16
1.47612e-17
5.26227e-18
5.18999e-18
0.0343361
0.0343361
0.0343361
0.0343361
0.0343361
0.0343361
0.0343361
0.0343361
0.0343358
0.0343318
0.0343094
0.034235
0.0340599
0.0337315
0.0332068
0.0324631
0.0315041
0.0303584
0.0290721
0.0276983
0.0262885
0.0248856
0.023522
0.0222192
0.0209898
0.0198393
0.0187688
0.0177759
0.0168566
0.016006
0.0152187
0.0144894
0.013813
0.0131848
0.0126004
0.0120558
0.0115474
0.011072
0.0106267
0.0102089
0.00981614
0.00944649
0.00909803
0.00876906
0.00845808
0.00816372
0.00788474
0.00762003
0.00736856
0.00712942
0.00690174
0.00668475
0.00647771
0.00627996
0.00609085
0.00590979
0.00573625
0.00556969
0.00540963
0.00525565
0.00510735
0.00496439
0.00482642
0.00469314
0.00456426
0.00443952
0.00431869
0.00420154
0.00408789
0.00397755
0.00387034
0.0037661
0.0036647
0.00356599
0.00346986
0.00337617
0.00328482
0.00319571
0.00310873
0.00302381
0.00294085
0.00285977
0.0027805
0.00270297
0.0026271
0.00255284
0.00248013
0.0024089
0.0023391
0.00227069
0.00220361
0.00213782
0.00207328
0.00200995
0.00194779
0.00188676
0.00182684
0.00176799
0.00171016
0.00165335
0.0015975
0.00154259
0.00148859
0.00143548
0.00138324
0.00133186
0.0012813
0.0012315
0.00118239
0.00113387
0.00108595
0.00103877
0.000992687
0.000948145
0.000905406
0.000864052
0.000822462
0.000777398
0.000723768
0.000655047
0.000565278
0.000453467
0.000328337
0.000207946
0.000111274
4.8085e-05
1.56999e-05
3.50811e-06
4.65887e-07
3.04048e-08
7.74301e-10
6.15931e-12
1.9048e-13
1.79577e-13
1.79484e-13
1.79092e-13
1.77409e-13
1.73245e-13
1.66177e-13
1.56903e-13
1.4678e-13
1.37022e-13
1.28204e-13
1.2031e-13
1.13033e-13
1.06038e-13
9.90931e-14
9.20937e-14
8.50334e-14
7.79573e-14
7.09208e-14
6.39654e-14
5.71106e-14
5.03568e-14
4.36907e-14
3.70935e-14
3.0551e-14
2.40681e-14
1.76953e-14
1.15872e-14
6.13855e-15
2.13194e-15
3.11392e-16
1.47615e-17
5.26227e-18
5.18999e-18
0.0343361
0.0343361
0.0343361
0.0343361
0.0343361
0.0343361
0.0343361
0.0343361
0.0343358
0.0343318
0.0343094
0.034235
0.0340599
0.0337315
0.0332068
0.0324631
0.0315041
0.0303584
0.0290721
0.0276983
0.0262885
0.0248856
0.023522
0.0222192
0.0209898
0.0198393
0.0187688
0.0177759
0.0168566
0.016006
0.0152187
0.0144894
0.013813
0.0131848
0.0126004
0.0120558
0.0115475
0.011072
0.0106267
0.0102089
0.00981615
0.00944651
0.00909804
0.00876908
0.0084581
0.00816374
0.00788476
0.00762005
0.00736858
0.00712944
0.00690176
0.00668477
0.00647774
0.00627998
0.00609087
0.00590982
0.00573627
0.00556972
0.00540966
0.00525567
0.00510738
0.00496442
0.00482645
0.00469317
0.00456429
0.00443955
0.00431872
0.00420158
0.00408793
0.00397759
0.00387038
0.00376614
0.00366474
0.00356604
0.0034699
0.00337621
0.00328486
0.00319575
0.00310878
0.00302385
0.00294089
0.00285982
0.00278055
0.00270302
0.00262715
0.00255289
0.00248018
0.00240895
0.00233915
0.00227074
0.00220366
0.00213788
0.00207334
0.00201
0.00194784
0.00188682
0.0018269
0.00176804
0.00171022
0.0016534
0.00159756
0.00154265
0.00148865
0.00143554
0.0013833
0.00133192
0.00128136
0.00123156
0.00118245
0.00113394
0.00108602
0.00103884
0.000992749
0.000948206
0.000905465
0.000864111
0.000822524
0.000777468
0.000723857
0.000655162
0.000565424
0.000453635
0.000328503
0.000208083
0.000111365
4.81321e-05
1.5718e-05
3.5128e-06
4.66608e-07
3.04597e-08
7.75944e-10
6.17428e-12
1.90504e-13
1.79568e-13
1.79476e-13
1.79084e-13
1.77402e-13
1.7324e-13
1.66173e-13
1.569e-13
1.46778e-13
1.37019e-13
1.28201e-13
1.20308e-13
1.1303e-13
1.06036e-13
9.90909e-14
9.20917e-14
8.50316e-14
7.79557e-14
7.09194e-14
6.39641e-14
5.71096e-14
5.03559e-14
4.36899e-14
3.70929e-14
3.05505e-14
2.40678e-14
1.76951e-14
1.15871e-14
6.13853e-15
2.13195e-15
3.11398e-16
1.47618e-17
5.26228e-18
5.18999e-18
0.0343361
0.0343361
0.0343361
0.0343361
0.0343361
0.0343361
0.0343361
0.0343361
0.0343358
0.0343318
0.0343094
0.034235
0.0340599
0.0337315
0.0332068
0.0324631
0.0315041
0.0303584
0.029072
0.0276983
0.0262885
0.0248856
0.023522
0.0222192
0.0209897
0.0198393
0.0187688
0.0177759
0.0168566
0.016006
0.0152187
0.0144894
0.013813
0.0131848
0.0126004
0.0120558
0.0115474
0.011072
0.0106267
0.0102089
0.00981616
0.00944651
0.00909804
0.00876908
0.0084581
0.00816374
0.00788476
0.00762005
0.00736859
0.00712944
0.00690177
0.00668478
0.00647774
0.00627999
0.00609088
0.00590983
0.00573628
0.00556972
0.00540967
0.00525568
0.00510739
0.00496443
0.00482646
0.00469318
0.0045643
0.00443957
0.00431874
0.0042016
0.00408795
0.0039776
0.00387039
0.00376616
0.00366476
0.00356606
0.00346992
0.00337623
0.00328488
0.00319577
0.0031088
0.00302388
0.00294092
0.00285984
0.00278057
0.00270304
0.00262718
0.00255292
0.0024802
0.00240898
0.00233918
0.00227077
0.00220369
0.0021379
0.00207337
0.00201004
0.00194788
0.00188685
0.00182693
0.00176808
0.00171026
0.00165344
0.00159759
0.00154268
0.00148868
0.00143557
0.00138334
0.00133195
0.00128139
0.0012316
0.00118249
0.00113398
0.00108606
0.00103888
0.000992788
0.000948244
0.000905502
0.000864147
0.000822562
0.000777514
0.000723916
0.000655242
0.000565528
0.000453759
0.000328632
0.000208194
0.000111442
4.81743e-05
1.57349e-05
3.51736e-06
4.67326e-07
3.05146e-08
7.77571e-10
6.18886e-12
1.90526e-13
1.7956e-13
1.79468e-13
1.79076e-13
1.77395e-13
1.73233e-13
1.66168e-13
1.56896e-13
1.46774e-13
1.37016e-13
1.28198e-13
1.20304e-13
1.13027e-13
1.06033e-13
9.90884e-14
9.20895e-14
8.50297e-14
7.79541e-14
7.0918e-14
6.39629e-14
5.71086e-14
5.03551e-14
4.36893e-14
3.70924e-14
3.05502e-14
2.40676e-14
1.7695e-14
1.15871e-14
6.13855e-15
2.13197e-15
3.11404e-16
1.47621e-17
5.26228e-18
5.18999e-18
0.0343361
0.0343361
0.0343361
0.0343361
0.0343361
0.0343361
0.0343361
0.0343361
0.0343358
0.0343318
0.0343094
0.034235
0.0340599
0.0337315
0.0332068
0.032463
0.0315041
0.0303584
0.029072
0.0276983
0.0262884
0.0248856
0.0235219
0.0222192
0.0209897
0.0198393
0.0187688
0.0177759
0.0168566
0.016006
0.0152187
0.0144894
0.013813
0.0131848
0.0126004
0.0120558
0.0115474
0.011072
0.0106267
0.0102089
0.00981615
0.00944651
0.00909804
0.00876908
0.0084581
0.00816374
0.00788476
0.00762005
0.00736859
0.00712944
0.00690177
0.00668478
0.00647774
0.00627999
0.00609088
0.00590983
0.00573628
0.00556973
0.00540967
0.00525569
0.00510739
0.00496443
0.00482647
0.00469319
0.00456431
0.00443957
0.00431874
0.0042016
0.00408795
0.00397761
0.0038704
0.00376617
0.00366476
0.00356606
0.00346992
0.00337624
0.00328489
0.00319578
0.00310881
0.00302388
0.00294092
0.00285985
0.00278058
0.00270305
0.00262718
0.00255293
0.00248021
0.00240898
0.00233919
0.00227078
0.0022037
0.00213791
0.00207338
0.00201005
0.00194789
0.00188686
0.00182694
0.00176809
0.00171027
0.00165345
0.0015976
0.00154269
0.00148869
0.00143559
0.00138335
0.00133197
0.00128141
0.00123162
0.0011825
0.00113399
0.00108607
0.00103889
0.000992803
0.000948258
0.000905516
0.000864161
0.000822577
0.000777531
0.000723939
0.000655275
0.000565575
0.000453817
0.000328695
0.00020825
0.000111483
4.81974e-05
1.57446e-05
3.52006e-06
4.6777e-07
3.055e-08
7.78658e-10
6.19884e-12
1.90542e-13
1.79555e-13
1.79462e-13
1.7907e-13
1.7739e-13
1.73229e-13
1.66164e-13
1.56893e-13
1.46772e-13
1.37013e-13
1.28196e-13
1.20302e-13
1.13026e-13
1.06031e-13
9.9087e-14
9.20883e-14
8.50287e-14
7.79533e-14
7.09174e-14
6.39625e-14
5.71082e-14
5.03549e-14
4.36891e-14
3.70923e-14
3.05502e-14
2.40676e-14
1.7695e-14
1.15871e-14
6.13858e-15
2.13199e-15
3.1141e-16
1.47624e-17
5.26228e-18
5.18999e-18
0.0343361
0.0343361
0.0343361
0.0343361
0.0343361
0.0343361
0.0343361
0.0343361
0.0343358
0.0343318
0.0343094
0.034235
0.0340599
0.0337315
0.0332068
0.032463
0.031504
0.0303584
0.029072
0.0276983
0.0262884
0.0248856
0.0235219
0.0222192
0.0209897
0.0198393
0.0187687
0.0177759
0.0168566
0.016006
0.0152187
0.0144894
0.013813
0.0131848
0.0126004
0.0120558
0.0115474
0.011072
0.0106267
0.0102089
0.00981615
0.0094465
0.00909804
0.00876907
0.00845809
0.00816373
0.00788476
0.00762005
0.00736858
0.00712944
0.00690176
0.00668477
0.00647774
0.00627999
0.00609088
0.00590983
0.00573628
0.00556973
0.00540967
0.00525569
0.00510739
0.00496443
0.00482647
0.00469319
0.00456431
0.00443957
0.00431874
0.0042016
0.00408795
0.00397761
0.0038704
0.00376617
0.00366477
0.00356606
0.00346992
0.00337624
0.00328489
0.00319578
0.00310881
0.00302388
0.00294092
0.00285985
0.00278058
0.00270305
0.00262719
0.00255293
0.00248021
0.00240899
0.00233919
0.00227078
0.0022037
0.00213792
0.00207338
0.00201005
0.00194789
0.00188687
0.00182694
0.00176809
0.00171027
0.00165345
0.0015976
0.0015427
0.0014887
0.00143559
0.00138335
0.00133197
0.00128141
0.00123162
0.00118251
0.00113399
0.00108607
0.0010389
0.000992807
0.000948261
0.000905519
0.000864163
0.000822579
0.000777535
0.000723945
0.000655284
0.000565588
0.000453834
0.000328714
0.000208268
0.000111496
4.82053e-05
1.5748e-05
3.52109e-06
4.6795e-07
3.05655e-08
7.79168e-10
6.20382e-12
1.90552e-13
1.79553e-13
1.7946e-13
1.79068e-13
1.77388e-13
1.73227e-13
1.66163e-13
1.56891e-13
1.4677e-13
1.37012e-13
1.28195e-13
1.20302e-13
1.13025e-13
1.06031e-13
9.90867e-14
9.20881e-14
8.50285e-14
7.79531e-14
7.09173e-14
6.39624e-14
5.71082e-14
5.03548e-14
4.36891e-14
3.70923e-14
3.05502e-14
2.40677e-14
1.76951e-14
1.15872e-14
6.13862e-15
2.13201e-15
3.11416e-16
1.47627e-17
5.26228e-18
5.18999e-18
0.0343361
0.0343361
0.0343361
0.0343361
0.0343361
0.0343361
0.0343361
0.0343361
0.0343358
0.0343318
0.0343094
0.034235
0.0340599
0.0337315
0.0332068
0.032463
0.031504
0.0303584
0.029072
0.0276983
0.0262884
0.0248855
0.0235219
0.0222191
0.0209897
0.0198393
0.0187687
0.0177758
0.0168566
0.016006
0.0152187
0.0144894
0.013813
0.0131848
0.0126004
0.0120558
0.0115474
0.011072
0.0106267
0.0102089
0.00981615
0.0094465
0.00909803
0.00876907
0.00845809
0.00816373
0.00788476
0.00762005
0.00736858
0.00712944
0.00690176
0.00668477
0.00647774
0.00627998
0.00609088
0.00590982
0.00573628
0.00556972
0.00540967
0.00525568
0.00510739
0.00496443
0.00482647
0.00469318
0.00456431
0.00443957
0.00431874
0.0042016
0.00408795
0.00397761
0.0038704
0.00376617
0.00366476
0.00356606
0.00346992
0.00337624
0.00328489
0.00319578
0.00310881
0.00302388
0.00294092
0.00285985
0.00278058
0.00270305
0.00262719
0.00255293
0.00248021
0.00240899
0.00233919
0.00227078
0.0022037
0.00213792
0.00207338
0.00201005
0.00194789
0.00188687
0.00182694
0.00176809
0.00171027
0.00165345
0.0015976
0.0015427
0.0014887
0.00143559
0.00138335
0.00133197
0.00128141
0.00123162
0.00118251
0.00113399
0.00108607
0.0010389
0.000992807
0.000948262
0.000905519
0.000864163
0.000822579
0.000777535
0.000723945
0.000655285
0.000565589
0.000453837
0.000328717
0.000208271
0.000111499
4.82068e-05
1.57487e-05
3.52132e-06
4.67999e-07
3.05703e-08
7.79345e-10
6.20569e-12
1.90556e-13
1.79552e-13
1.7946e-13
1.79068e-13
1.77387e-13
1.73227e-13
1.66162e-13
1.56891e-13
1.4677e-13
1.37012e-13
1.28195e-13
1.20302e-13
1.13025e-13
1.06031e-13
9.90866e-14
9.2088e-14
8.50285e-14
7.79531e-14
7.09173e-14
6.39624e-14
5.71082e-14
5.03549e-14
4.36892e-14
3.70924e-14
3.05502e-14
2.40677e-14
1.76951e-14
1.15872e-14
6.13866e-15
2.13203e-15
3.11421e-16
1.4763e-17
5.26228e-18
5.18999e-18
0.0343361
0.0343361
0.0343361
0.0343361
0.0343361
0.0343361
0.0343361
0.0343361
0.0343358
0.0343318
0.0343094
0.034235
0.0340599
0.0337315
0.0332068
0.032463
0.031504
0.0303583
0.029072
0.0276983
0.0262884
0.0248855
0.0235219
0.0222191
0.0209897
0.0198393
0.0187687
0.0177758
0.0168566
0.0160059
0.0152187
0.0144894
0.013813
0.0131848
0.0126004
0.0120558
0.0115474
0.011072
0.0106267
0.0102088
0.00981614
0.0094465
0.00909803
0.00876907
0.00845809
0.00816373
0.00788475
0.00762004
0.00736858
0.00712944
0.00690176
0.00668477
0.00647774
0.00627998
0.00609087
0.00590982
0.00573628
0.00556972
0.00540967
0.00525568
0.00510739
0.00496443
0.00482646
0.00469318
0.0045643
0.00443957
0.00431874
0.0042016
0.00408795
0.0039776
0.0038704
0.00376616
0.00366476
0.00356606
0.00346992
0.00337624
0.00328489
0.00319578
0.00310881
0.00302388
0.00294092
0.00285985
0.00278058
0.00270305
0.00262719
0.00255293
0.00248021
0.00240899
0.00233919
0.00227078
0.0022037
0.00213792
0.00207338
0.00201005
0.00194789
0.00188687
0.00182694
0.00176809
0.00171027
0.00165345
0.0015976
0.0015427
0.0014887
0.00143559
0.00138335
0.00133197
0.00128141
0.00123162
0.00118251
0.00113399
0.00108607
0.0010389
0.000992807
0.000948261
0.000905518
0.000864163
0.000822579
0.000777534
0.000723944
0.000655284
0.000565588
0.000453836
0.000328716
0.00020827
0.000111498
4.82066e-05
1.57487e-05
3.52135e-06
4.68008e-07
3.05714e-08
7.79394e-10
6.20629e-12
1.90557e-13
1.79552e-13
1.7946e-13
1.79068e-13
1.77387e-13
1.73227e-13
1.66162e-13
1.56891e-13
1.4677e-13
1.37012e-13
1.28195e-13
1.20302e-13
1.13025e-13
1.06031e-13
9.90867e-14
9.20881e-14
8.50286e-14
7.79532e-14
7.09174e-14
6.39625e-14
5.71083e-14
5.0355e-14
4.36893e-14
3.70925e-14
3.05503e-14
2.40678e-14
1.76952e-14
1.15873e-14
6.13869e-15
2.13205e-15
3.11426e-16
1.47633e-17
5.26229e-18
5.18999e-18
0.0343358
0.0343358
0.0343358
0.0343358
0.0343358
0.0343358
0.0343358
0.0343358
0.0343355
0.0343315
0.0343091
0.0342347
0.0340596
0.0337312
0.0332065
0.0324628
0.0315038
0.0303582
0.0290718
0.0276981
0.0262883
0.0248855
0.0235219
0.0222191
0.0209897
0.0198393
0.0187687
0.0177758
0.0168566
0.0160059
0.0152186
0.0144894
0.013813
0.0131848
0.0126004
0.0120558
0.0115474
0.011072
0.0106267
0.0102088
0.00981614
0.00944649
0.00909803
0.00876907
0.00845809
0.00816373
0.00788475
0.00762004
0.00736858
0.00712943
0.00690176
0.00668477
0.00647773
0.00627998
0.00609087
0.00590982
0.00573628
0.00556972
0.00540967
0.00525568
0.00510739
0.00496443
0.00482646
0.00469318
0.0045643
0.00443957
0.00431874
0.0042016
0.00408795
0.0039776
0.00387039
0.00376616
0.00366476
0.00356606
0.00346992
0.00337623
0.00328489
0.00319578
0.00310881
0.00302388
0.00294092
0.00285985
0.00278058
0.00270305
0.00262719
0.00255293
0.00248021
0.00240899
0.00233919
0.00227078
0.0022037
0.00213792
0.00207338
0.00201005
0.00194789
0.00188687
0.00182694
0.00176809
0.00171027
0.00165345
0.0015976
0.0015427
0.0014887
0.00143559
0.00138335
0.00133197
0.00128141
0.00123162
0.00118251
0.00113399
0.00108607
0.00103889
0.000992806
0.00094826
0.000905517
0.000864162
0.000822578
0.000777533
0.000723942
0.000655281
0.000565585
0.000453832
0.000328712
0.000208267
0.000111496
4.82056e-05
1.57485e-05
3.52131e-06
4.68006e-07
3.05716e-08
7.79408e-10
6.2065e-12
1.90558e-13
1.79553e-13
1.7946e-13
1.79068e-13
1.77388e-13
1.73227e-13
1.66163e-13
1.56892e-13
1.46771e-13
1.37013e-13
1.28195e-13
1.20302e-13
1.13025e-13
1.06031e-13
9.90869e-14
9.20883e-14
8.50287e-14
7.79534e-14
7.09175e-14
6.39626e-14
5.71084e-14
5.03551e-14
4.36893e-14
3.70925e-14
3.05504e-14
2.40678e-14
1.76952e-14
1.15873e-14
6.13872e-15
2.13207e-15
3.11432e-16
1.47636e-17
5.26229e-18
5.18999e-18
0.0343318
0.0343318
0.0343318
0.0343318
0.0343318
0.0343318
0.0343318
0.0343318
0.0343315
0.0343276
0.0343052
0.0342308
0.0340558
0.0337276
0.0332031
0.0324597
0.031501
0.0303558
0.0290699
0.0276965
0.026287
0.0248844
0.0235211
0.0222185
0.0209892
0.0198389
0.0187684
0.0177756
0.0168564
0.0160058
0.0152186
0.0144893
0.013813
0.0131848
0.0126004
0.0120558
0.0115474
0.011072
0.0106267
0.0102088
0.00981613
0.00944649
0.00909802
0.00876906
0.00845808
0.00816372
0.00788475
0.00762004
0.00736858
0.00712943
0.00690176
0.00668477
0.00647773
0.00627998
0.00609087
0.00590982
0.00573628
0.00556972
0.00540967
0.00525568
0.00510739
0.00496443
0.00482646
0.00469318
0.0045643
0.00443957
0.00431874
0.0042016
0.00408795
0.0039776
0.00387039
0.00376616
0.00366476
0.00356606
0.00346992
0.00337623
0.00328489
0.00319578
0.0031088
0.00302388
0.00294092
0.00285985
0.00278058
0.00270305
0.00262718
0.00255293
0.00248021
0.00240898
0.00233919
0.00227078
0.0022037
0.00213792
0.00207338
0.00201005
0.00194789
0.00188686
0.00182694
0.00176809
0.00171027
0.00165345
0.0015976
0.00154269
0.0014887
0.00143559
0.00138335
0.00133197
0.00128141
0.00123162
0.00118251
0.00113399
0.00108607
0.00103889
0.000992805
0.000948259
0.000905516
0.00086416
0.000822576
0.000777531
0.000723939
0.000655277
0.00056558
0.000453826
0.000328706
0.000208262
0.000111493
4.8204e-05
1.57479e-05
3.52119e-06
4.67994e-07
3.05712e-08
7.79409e-10
6.20659e-12
1.90559e-13
1.79553e-13
1.79461e-13
1.79069e-13
1.77388e-13
1.73228e-13
1.66163e-13
1.56892e-13
1.46771e-13
1.37013e-13
1.28196e-13
1.20302e-13
1.13025e-13
1.06031e-13
9.90871e-14
9.20884e-14
8.50289e-14
7.79535e-14
7.09177e-14
6.39628e-14
5.71085e-14
5.03552e-14
4.36894e-14
3.70926e-14
3.05504e-14
2.40679e-14
1.76953e-14
1.15873e-14
6.13876e-15
2.13209e-15
3.11437e-16
1.47639e-17
5.26229e-18
5.18999e-18
0.0343094
0.0343094
0.0343094
0.0343094
0.0343094
0.0343094
0.0343094
0.0343094
0.0343091
0.0343052
0.0342828
0.0342087
0.0340342
0.0337068
0.0331835
0.0324418
0.0314851
0.030342
0.0290582
0.0276869
0.0262792
0.0248782
0.0235162
0.0222146
0.0209862
0.0198366
0.0187666
0.0177742
0.0168553
0.016005
0.0152179
0.0144888
0.0138126
0.0131845
0.0126001
0.0120556
0.0115473
0.0110719
0.0106266
0.0102088
0.00981608
0.00944645
0.00909799
0.00876904
0.00845806
0.00816371
0.00788474
0.00762003
0.00736857
0.00712943
0.00690175
0.00668476
0.00647773
0.00627998
0.00609087
0.00590982
0.00573627
0.00556972
0.00540966
0.00525568
0.00510739
0.00496443
0.00482646
0.00469318
0.0045643
0.00443956
0.00431874
0.0042016
0.00408795
0.0039776
0.00387039
0.00376616
0.00366476
0.00356606
0.00346992
0.00337623
0.00328489
0.00319577
0.0031088
0.00302388
0.00294092
0.00285985
0.00278058
0.00270305
0.00262718
0.00255293
0.00248021
0.00240898
0.00233919
0.00227078
0.0022037
0.00213791
0.00207338
0.00201005
0.00194789
0.00188686
0.00182694
0.00176809
0.00171027
0.00165345
0.0015976
0.00154269
0.0014887
0.00143559
0.00138335
0.00133197
0.00128141
0.00123162
0.00118251
0.00113399
0.00108607
0.00103889
0.000992804
0.000948258
0.000905515
0.000864159
0.000822575
0.000777529
0.000723937
0.000655274
0.000565575
0.00045382
0.0003287
0.000208257
0.00011149
4.82023e-05
1.57473e-05
3.52104e-06
4.67974e-07
3.05701e-08
7.7939e-10
6.20654e-12
1.9056e-13
1.79554e-13
1.79461e-13
1.7907e-13
1.77389e-13
1.73228e-13
1.66164e-13
1.56893e-13
1.46772e-13
1.37013e-13
1.28196e-13
1.20303e-13
1.13026e-13
1.06031e-13
9.90873e-14
9.20886e-14
8.50291e-14
7.79536e-14
7.09178e-14
6.39629e-14
5.71086e-14
5.03552e-14
4.36895e-14
3.70927e-14
3.05505e-14
2.40679e-14
1.76953e-14
1.15874e-14
6.13879e-15
2.13211e-15
3.11442e-16
1.47641e-17
5.26229e-18
5.18999e-18
0.034235
0.034235
0.034235
0.034235
0.034235
0.034235
0.034235
0.034235
0.0342347
0.0342308
0.0342087
0.0341352
0.0339622
0.0336375
0.0331183
0.0323818
0.0314314
0.0302952
0.0290183
0.0276537
0.026252
0.0248562
0.0234986
0.0222007
0.0209751
0.0198278
0.0187597
0.0177688
0.016851
0.0160016
0.0152152
0.0144867
0.0138109
0.0131831
0.0125991
0.0120547
0.0115466
0.0110713
0.0106262
0.0102084
0.0098158
0.00944622
0.00909781
0.00876889
0.00845795
0.00816362
0.00788466
0.00761997
0.00736852
0.00712939
0.00690172
0.00668474
0.00647771
0.00627996
0.00609086
0.00590981
0.00573627
0.00556971
0.00540966
0.00525567
0.00510738
0.00496442
0.00482646
0.00469318
0.0045643
0.00443956
0.00431873
0.00420159
0.00408794
0.0039776
0.00387039
0.00376616
0.00366476
0.00356606
0.00346992
0.00337623
0.00328489
0.00319577
0.0031088
0.00302388
0.00294092
0.00285985
0.00278058
0.00270305
0.00262718
0.00255293
0.00248021
0.00240898
0.00233919
0.00227078
0.0022037
0.00213791
0.00207338
0.00201005
0.00194789
0.00188686
0.00182694
0.00176809
0.00171027
0.00165345
0.0015976
0.00154269
0.0014887
0.00143559
0.00138335
0.00133197
0.00128141
0.00123162
0.0011825
0.00113399
0.00108607
0.00103889
0.000992803
0.000948258
0.000905514
0.000864158
0.000822574
0.000777528
0.000723935
0.000655271
0.000565571
0.000453816
0.000328696
0.000208253
0.000111487
4.82008e-05
1.57467e-05
3.5209e-06
4.67955e-07
3.05688e-08
7.79359e-10
6.20633e-12
1.9056e-13
1.79554e-13
1.79462e-13
1.7907e-13
1.7739e-13
1.73229e-13
1.66165e-13
1.56893e-13
1.46772e-13
1.37014e-13
1.28196e-13
1.20303e-13
1.13026e-13
1.06032e-13
9.90875e-14
9.20888e-14
8.50292e-14
7.79538e-14
7.09179e-14
6.3963e-14
5.71087e-14
5.03553e-14
4.36896e-14
3.70927e-14
3.05506e-14
2.4068e-14
1.76954e-14
1.15874e-14
6.13882e-15
2.13213e-15
3.11447e-16
1.47644e-17
5.2623e-18
5.18999e-18
0.0340599
0.0340599
0.0340599
0.0340599
0.0340599
0.0340599
0.0340599
0.0340599
0.0340596
0.0340558
0.0340342
0.0339622
0.0337926
0.0334739
0.0329636
0.0322392
0.0313032
0.0301827
0.028922
0.0275728
0.0261852
0.0248017
0.0234545
0.0221653
0.0209468
0.0198052
0.0187416
0.0177543
0.0168394
0.0159922
0.0152077
0.0144806
0.0138059
0.0131791
0.0125958
0.0120521
0.0115444
0.0110696
0.0106247
0.0102072
0.00981483
0.00944542
0.00909716
0.00876835
0.0084575
0.00816325
0.00788436
0.00761972
0.00736832
0.00712922
0.00690158
0.00668462
0.00647761
0.00627988
0.00609079
0.00590975
0.00573622
0.00556967
0.00540962
0.00525564
0.00510736
0.0049644
0.00482644
0.00469316
0.00456429
0.00443955
0.00431872
0.00420159
0.00408794
0.0039776
0.00387039
0.00376616
0.00366476
0.00356605
0.00346992
0.00337623
0.00328488
0.00319577
0.0031088
0.00302388
0.00294092
0.00285985
0.00278058
0.00270305
0.00262718
0.00255292
0.00248021
0.00240898
0.00233919
0.00227078
0.0022037
0.00213791
0.00207338
0.00201005
0.00194789
0.00188686
0.00182694
0.00176809
0.00171027
0.00165345
0.0015976
0.00154269
0.0014887
0.00143559
0.00138335
0.00133197
0.00128141
0.00123162
0.0011825
0.00113399
0.00108607
0.00103889
0.000992803
0.000948257
0.000905514
0.000864158
0.000822573
0.000777527
0.000723934
0.000655269
0.000565569
0.000453813
0.000328692
0.000208251
0.000111485
4.81999e-05
1.57463e-05
3.52081e-06
4.67941e-07
3.05678e-08
7.79331e-10
6.20611e-12
1.9056e-13
1.79555e-13
1.79462e-13
1.79071e-13
1.7739e-13
1.7323e-13
1.66165e-13
1.56894e-13
1.46773e-13
1.37014e-13
1.28197e-13
1.20303e-13
1.13026e-13
1.06032e-13
9.90877e-14
9.2089e-14
8.50294e-14
7.79539e-14
7.0918e-14
6.39631e-14
5.71089e-14
5.03554e-14
4.36897e-14
3.70928e-14
3.05506e-14
2.40681e-14
1.76954e-14
1.15875e-14
6.13886e-15
2.13215e-15
3.11452e-16
1.47646e-17
5.2623e-18
5.18999e-18
0.0337316
0.0337315
0.0337315
0.0337315
0.0337315
0.0337315
0.0337315
0.0337315
0.0337312
0.0337276
0.0337068
0.0336375
0.0334739
0.0331659
0.0326719
0.0319691
0.0310593
0.0299678
0.0287368
0.0274162
0.0260549
0.0246946
0.0233672
0.0220945
0.0208896
0.019759
0.0187043
0.0177241
0.0168149
0.0159724
0.0151915
0.0144673
0.0137951
0.0131702
0.0125885
0.012046
0.0115394
0.0110654
0.0106213
0.0102044
0.00981243
0.00944342
0.00909549
0.00876696
0.00845633
0.00816227
0.00788354
0.00761903
0.00736773
0.00712873
0.00690116
0.00668427
0.00647731
0.00627962
0.00609056
0.00590956
0.00573605
0.00556952
0.00540949
0.00525553
0.00510726
0.00496431
0.00482636
0.00469309
0.00456422
0.0044395
0.00431868
0.00420154
0.0040879
0.00397756
0.00387036
0.00376613
0.00366474
0.00356604
0.0034699
0.00337622
0.00328487
0.00319576
0.00310879
0.00302387
0.00294091
0.00285984
0.00278057
0.00270304
0.00262718
0.00255292
0.00248021
0.00240898
0.00233919
0.00227078
0.0022037
0.00213791
0.00207337
0.00201004
0.00194789
0.00188686
0.00182694
0.00176809
0.00171027
0.00165345
0.0015976
0.00154269
0.0014887
0.00143559
0.00138335
0.00133197
0.00128141
0.00123162
0.0011825
0.00113399
0.00108607
0.00103889
0.000992802
0.000948256
0.000905513
0.000864157
0.000822572
0.000777526
0.000723932
0.000655268
0.000565567
0.00045381
0.00032869
0.000208249
0.000111484
4.81992e-05
1.57461e-05
3.52074e-06
4.67931e-07
3.05671e-08
7.79312e-10
6.20595e-12
1.90561e-13
1.79555e-13
1.79463e-13
1.79071e-13
1.77391e-13
1.7323e-13
1.66166e-13
1.56894e-13
1.46773e-13
1.37015e-13
1.28197e-13
1.20304e-13
1.13027e-13
1.06032e-13
9.90879e-14
9.20892e-14
8.50296e-14
7.79541e-14
7.09182e-14
6.39632e-14
5.7109e-14
5.03555e-14
4.36898e-14
3.70929e-14
3.05507e-14
2.40681e-14
1.76955e-14
1.15875e-14
6.13889e-15
2.13217e-15
3.11457e-16
1.47649e-17
5.2623e-18
5.18999e-18
0.0332068
0.0332068
0.0332068
0.0332068
0.0332068
0.0332068
0.0332068
0.0332068
0.0332065
0.0332031
0.0331835
0.0331183
0.0329636
0.0326719
0.0322027
0.0315334
0.030664
0.0296175
0.0284331
0.0271578
0.0258383
0.0245153
0.0232199
0.0219741
0.0207915
0.0196792
0.0186393
0.0176711
0.0167716
0.0159369
0.0151623
0.0144433
0.0137753
0.0131538
0.0125748
0.0120346
0.0115299
0.0110574
0.0106146
0.0101987
0.00980768
0.00943941
0.00909209
0.00876408
0.0084539
0.0081602
0.00788178
0.00761753
0.00736645
0.00712763
0.00690022
0.00668345
0.00647661
0.00627901
0.00609003
0.00590908
0.00573563
0.00556914
0.00540915
0.00525523
0.00510698
0.00496406
0.00482614
0.00469289
0.00456404
0.00443933
0.00431853
0.00420141
0.00408778
0.00397746
0.00387026
0.00376605
0.00366466
0.00356597
0.00346984
0.00337616
0.00328482
0.00319572
0.00310875
0.00302384
0.00294088
0.00285981
0.00278055
0.00270302
0.00262716
0.00255291
0.00248019
0.00240897
0.00233918
0.00227077
0.00220369
0.00213791
0.00207337
0.00201004
0.00194788
0.00188686
0.00182694
0.00176808
0.00171026
0.00165345
0.0015976
0.00154269
0.00148869
0.00143558
0.00138335
0.00133197
0.00128141
0.00123162
0.0011825
0.00113399
0.00108607
0.00103889
0.000992801
0.000948256
0.000905512
0.000864156
0.000822572
0.000777525
0.000723932
0.000655267
0.000565565
0.000453808
0.000328688
0.000208247
0.000111483
4.81987e-05
1.57459e-05
3.5207e-06
4.67925e-07
3.05666e-08
7.793e-10
6.20585e-12
1.90561e-13
1.79556e-13
1.79463e-13
1.79072e-13
1.77391e-13
1.7323e-13
1.66166e-13
1.56895e-13
1.46773e-13
1.37015e-13
1.28197e-13
1.20304e-13
1.13027e-13
1.06032e-13
9.90882e-14
9.20894e-14
8.50298e-14
7.79543e-14
7.09184e-14
6.39634e-14
5.71091e-14
5.03557e-14
4.36899e-14
3.7093e-14
3.05508e-14
2.40682e-14
1.76955e-14
1.15876e-14
6.13893e-15
2.13219e-15
3.11461e-16
1.47651e-17
5.2623e-18
5.18999e-18
0.0324631
0.0324631
0.0324631
0.0324631
0.032463
0.032463
0.032463
0.032463
0.0324628
0.0324597
0.0324418
0.0323818
0.0322392
0.0319691
0.0315334
0.0309092
0.0300951
0.0291105
0.0279905
0.0267785
0.0255182
0.0242481
0.0229987
0.0217921
0.0206421
0.0195567
0.0185388
0.0175886
0.0167037
0.0158808
0.015116
0.0144048
0.0137432
0.013127
0.0125524
0.0120158
0.011514
0.0110441
0.0106033
0.0101891
0.00979954
0.00943248
0.00908618
0.00875903
0.00844957
0.00815649
0.00787859
0.00761479
0.00736409
0.00712558
0.00689845
0.00668191
0.00647525
0.00627782
0.00608897
0.00590814
0.00573478
0.00556837
0.00540845
0.00525459
0.0051064
0.00496353
0.00482565
0.00469244
0.00456363
0.00443895
0.00431818
0.00420109
0.00408749
0.00397719
0.00387002
0.00376582
0.00366445
0.00356578
0.00346967
0.003376
0.00328468
0.00319559
0.00310864
0.00302373
0.00294079
0.00285972
0.00278047
0.00270295
0.00262709
0.00255285
0.00248014
0.00240892
0.00233913
0.00227073
0.00220366
0.00213787
0.00207334
0.00201001
0.00194786
0.00188684
0.00182692
0.00176807
0.00171025
0.00165344
0.00159759
0.00154268
0.00148869
0.00143558
0.00138334
0.00133196
0.0012814
0.00123161
0.0011825
0.00113399
0.00108607
0.00103889
0.000992799
0.000948254
0.000905511
0.000864155
0.00082257
0.000777524
0.00072393
0.000655265
0.000565564
0.000453807
0.000328687
0.000208246
0.000111482
4.81983e-05
1.57458e-05
3.52066e-06
4.6792e-07
3.05663e-08
7.7929e-10
6.20576e-12
1.90561e-13
1.79556e-13
1.79464e-13
1.79072e-13
1.77392e-13
1.73231e-13
1.66166e-13
1.56895e-13
1.46774e-13
1.37015e-13
1.28198e-13
1.20304e-13
1.13027e-13
1.06033e-13
9.90884e-14
9.20897e-14
8.503e-14
7.79545e-14
7.09185e-14
6.39635e-14
5.71092e-14
5.03558e-14
4.369e-14
3.70931e-14
3.05509e-14
2.40683e-14
1.76956e-14
1.15876e-14
6.13896e-15
2.13221e-15
3.11466e-16
1.47653e-17
5.2623e-18
5.18999e-18
0.0315041
0.0315041
0.0315041
0.0315041
0.0315041
0.031504
0.031504
0.031504
0.0315038
0.031501
0.0314851
0.0314314
0.0313032
0.0310593
0.030664
0.0300951
0.029349
0.0284413
0.0274023