/*--------------------------------*- C++ -*----------------------------------*\
  =========                 |
  \\      /  F ield         | OpenFOAM: The Open Source CFD Toolbox
   \\    /   O peration     | Website:  https://openfoam.org
    \\  /    A nd           | Version:  13
     \\/     M anipulation  |
\*---------------------------------------------------------------------------*/
FoamFile
{
    format      ascii;
    class       volScalarField;
    location    "0.0013";
    object      O2;
}
// * * * * * * * * * * * * * * * * * * * * * * * * * * * * * * * * * * * * * //

dimensions      [];

internalField   nonuniform List<scalar> 
33334
(
0.389012
0.389012
0.389012
0.389012
0.389012
0.389012
0.389012
0.389012
0.389013
0.38902
0.38906
0.389192
0.389503
0.390086
0.391018
0.392339
0.394042
0.396077
0.398362
0.400802
0.403306
0.405798
0.40822
0.410534
0.412718
0.414761
0.416663
0.418426
0.420059
0.42157
0.422969
0.424264
0.425465
0.426581
0.427619
0.428586
0.429489
0.430334
0.431125
0.431867
0.432565
0.433221
0.43384
0.434424
0.434977
0.4355
0.435995
0.436465
0.436912
0.437337
0.437741
0.438127
0.438494
0.438846
0.439181
0.439503
0.439811
0.440107
0.440391
0.440665
0.440928
0.441182
0.441427
0.441664
0.441893
0.442115
0.442329
0.442537
0.442739
0.442935
0.443126
0.443311
0.443491
0.443666
0.443837
0.444003
0.444166
0.444324
0.444478
0.444629
0.444777
0.444921
0.445061
0.445199
0.445334
0.445466
0.445595
0.445721
0.445845
0.445967
0.446086
0.446203
0.446318
0.44643
0.44654
0.446649
0.446755
0.44686
0.446962
0.447063
0.447163
0.44726
0.447356
0.44745
0.447543
0.447634
0.447724
0.447813
0.4479
0.447986
0.448071
0.448155
0.448237
0.448316
0.448392
0.448465
0.448539
0.448619
0.448715
0.448837
0.448996
0.449195
0.449417
0.449631
0.449802
0.449915
0.449972
0.449994
0.449999
0.45
0.45
0.45
0.45
0.45
0.45
0.45
0.45
0.45
0.45
0.45
0.45
0.45
0.45
0.45
0.45
0.45
0.45
0.45
0.45
0.45
0.45
0.45
0.45
0.45
0.45
0.45
0.45
0.45
0.45
0.45
0.45
0.45
0.45
0.45
0.45
0.45
0.389012
0.389012
0.389012
0.389012
0.389012
0.389012
0.389012
0.389012
0.389013
0.38902
0.38906
0.389192
0.389503
0.390086
0.391018
0.392339
0.394042
0.396077
0.398362
0.400802
0.403306
0.405798
0.40822
0.410534
0.412718
0.414761
0.416663
0.418426
0.420059
0.42157
0.422969
0.424264
0.425465
0.426581
0.427619
0.428586
0.429489
0.430334
0.431125
0.431867
0.432565
0.433221
0.43384
0.434424
0.434977
0.4355
0.435995
0.436465
0.436912
0.437337
0.437741
0.438127
0.438494
0.438846
0.439181
0.439503
0.439811
0.440107
0.440391
0.440665
0.440928
0.441182
0.441427
0.441664
0.441893
0.442115
0.442329
0.442537
0.442739
0.442935
0.443126
0.443311
0.443491
0.443666
0.443837
0.444003
0.444166
0.444324
0.444478
0.444629
0.444776
0.44492
0.445061
0.445199
0.445334
0.445466
0.445595
0.445721
0.445845
0.445967
0.446086
0.446203
0.446317
0.44643
0.44654
0.446649
0.446755
0.44686
0.446962
0.447063
0.447163
0.44726
0.447356
0.44745
0.447543
0.447634
0.447724
0.447813
0.4479
0.447986
0.448071
0.448155
0.448237
0.448316
0.448392
0.448465
0.448539
0.448619
0.448714
0.448837
0.448996
0.449195
0.449417
0.449631
0.449802
0.449915
0.449972
0.449994
0.449999
0.45
0.45
0.45
0.45
0.45
0.45
0.45
0.45
0.45
0.45
0.45
0.45
0.45
0.45
0.45
0.45
0.45
0.45
0.45
0.45
0.45
0.45
0.45
0.45
0.45
0.45
0.45
0.45
0.45
0.45
0.45
0.45
0.45
0.45
0.45
0.45
0.45
0.389012
0.389012
0.389012
0.389012
0.389012
0.389012
0.389012
0.389012
0.389013
0.38902
0.38906
0.389192
0.389503
0.390086
0.391018
0.392339
0.394042
0.396077
0.398362
0.400802
0.403306
0.405798
0.40822
0.410534
0.412718
0.414761
0.416663
0.418426
0.420059
0.42157
0.422969
0.424264
0.425465
0.426581
0.427619
0.428586
0.429489
0.430334
0.431125
0.431867
0.432565
0.433221
0.43384
0.434424
0.434977
0.4355
0.435995
0.436465
0.436912
0.437337
0.437741
0.438127
0.438494
0.438845
0.439181
0.439503
0.439811
0.440107
0.440391
0.440665
0.440928
0.441182
0.441427
0.441664
0.441893
0.442114
0.442329
0.442537
0.442739
0.442935
0.443125
0.443311
0.443491
0.443666
0.443837
0.444003
0.444165
0.444324
0.444478
0.444629
0.444776
0.44492
0.445061
0.445199
0.445334
0.445466
0.445595
0.445721
0.445845
0.445967
0.446086
0.446203
0.446317
0.44643
0.44654
0.446649
0.446755
0.44686
0.446962
0.447063
0.447162
0.44726
0.447356
0.44745
0.447543
0.447634
0.447724
0.447812
0.4479
0.447986
0.448071
0.448155
0.448237
0.448316
0.448392
0.448465
0.448539
0.448619
0.448714
0.448836
0.448996
0.449194
0.449417
0.44963
0.449802
0.449915
0.449972
0.449994
0.449999
0.45
0.45
0.45
0.45
0.45
0.45
0.45
0.45
0.45
0.45
0.45
0.45
0.45
0.45
0.45
0.45
0.45
0.45
0.45
0.45
0.45
0.45
0.45
0.45
0.45
0.45
0.45
0.45
0.45
0.45
0.45
0.45
0.45
0.45
0.45
0.45
0.45
0.389012
0.389012
0.389012
0.389012
0.389012
0.389012
0.389012
0.389012
0.389013
0.38902
0.38906
0.389192
0.389503
0.390086
0.391018
0.392339
0.394042
0.396077
0.398362
0.400802
0.403306
0.405798
0.40822
0.410534
0.412718
0.414761
0.416663
0.418426
0.420059
0.42157
0.422969
0.424264
0.425465
0.426581
0.427619
0.428586
0.429489
0.430334
0.431125
0.431867
0.432565
0.433221
0.43384
0.434424
0.434977
0.4355
0.435995
0.436465
0.436912
0.437337
0.437741
0.438126
0.438494
0.438845
0.439181
0.439503
0.439811
0.440107
0.440391
0.440665
0.440928
0.441182
0.441427
0.441664
0.441893
0.442114
0.442329
0.442537
0.442739
0.442935
0.443125
0.443311
0.443491
0.443666
0.443837
0.444003
0.444165
0.444324
0.444478
0.444629
0.444776
0.44492
0.445061
0.445199
0.445334
0.445466
0.445595
0.445721
0.445845
0.445967
0.446086
0.446203
0.446317
0.44643
0.44654
0.446649
0.446755
0.44686
0.446962
0.447063
0.447162
0.44726
0.447356
0.44745
0.447543
0.447634
0.447724
0.447812
0.4479
0.447986
0.448071
0.448155
0.448237
0.448316
0.448392
0.448465
0.448539
0.448619
0.448714
0.448836
0.448996
0.449194
0.449416
0.44963
0.449802
0.449914
0.449972
0.449994
0.449999
0.45
0.45
0.45
0.45
0.45
0.45
0.45
0.45
0.45
0.45
0.45
0.45
0.45
0.45
0.45
0.45
0.45
0.45
0.45
0.45
0.45
0.45
0.45
0.45
0.45
0.45
0.45
0.45
0.45
0.45
0.45
0.45
0.45
0.45
0.45
0.45
0.45
0.389012
0.389012
0.389012
0.389012
0.389012
0.389012
0.389012
0.389012
0.389013
0.38902
0.38906
0.389192
0.389503
0.390086
0.391018
0.392339
0.394042
0.396077
0.398362
0.400802
0.403306
0.405798
0.40822
0.410534
0.412718
0.414761
0.416663
0.418426
0.420059
0.42157
0.422969
0.424264
0.425465
0.426581
0.427619
0.428586
0.429489
0.430334
0.431125
0.431867
0.432565
0.433221
0.43384
0.434424
0.434977
0.4355
0.435995
0.436465
0.436912
0.437337
0.437741
0.438126
0.438494
0.438845
0.439181
0.439503
0.439811
0.440107
0.440391
0.440665
0.440928
0.441182
0.441427
0.441664
0.441893
0.442114
0.442329
0.442537
0.442739
0.442935
0.443125
0.443311
0.443491
0.443666
0.443837
0.444003
0.444165
0.444324
0.444478
0.444629
0.444776
0.44492
0.445061
0.445199
0.445334
0.445465
0.445595
0.445721
0.445845
0.445967
0.446086
0.446203
0.446317
0.44643
0.44654
0.446649
0.446755
0.44686
0.446962
0.447063
0.447162
0.44726
0.447356
0.44745
0.447543
0.447634
0.447724
0.447812
0.4479
0.447986
0.448071
0.448155
0.448237
0.448316
0.448392
0.448465
0.448539
0.448619
0.448714
0.448836
0.448995
0.449194
0.449416
0.44963
0.449802
0.449914
0.449972
0.449994
0.449999
0.45
0.45
0.45
0.45
0.45
0.45
0.45
0.45
0.45
0.45
0.45
0.45
0.45
0.45
0.45
0.45
0.45
0.45
0.45
0.45
0.45
0.45
0.45
0.45
0.45
0.45
0.45
0.45
0.45
0.45
0.45
0.45
0.45
0.45
0.45
0.45
0.45
0.389012
0.389012
0.389012
0.389012
0.389012
0.389012
0.389012
0.389012
0.389013
0.38902
0.38906
0.389192
0.389503
0.390086
0.391018
0.392339
0.394042
0.396077
0.398362
0.400802
0.403306
0.405798
0.40822
0.410534
0.412718
0.414761
0.416663
0.418427
0.420059
0.42157
0.422969
0.424264
0.425465
0.426581
0.427619
0.428586
0.429489
0.430334
0.431125
0.431867
0.432565
0.433221
0.43384
0.434424
0.434977
0.4355
0.435995
0.436465
0.436912
0.437337
0.437741
0.438126
0.438494
0.438845
0.439181
0.439503
0.439811
0.440107
0.440391
0.440665
0.440928
0.441182
0.441427
0.441664
0.441893
0.442114
0.442329
0.442537
0.442739
0.442935
0.443125
0.443311
0.443491
0.443666
0.443837
0.444003
0.444165
0.444324
0.444478
0.444629
0.444776
0.44492
0.445061
0.445199
0.445334
0.445465
0.445595
0.445721
0.445845
0.445967
0.446086
0.446203
0.446317
0.44643
0.44654
0.446649
0.446755
0.44686
0.446962
0.447063
0.447162
0.44726
0.447356
0.44745
0.447543
0.447634
0.447724
0.447812
0.4479
0.447986
0.448071
0.448155
0.448237
0.448316
0.448392
0.448465
0.448539
0.448619
0.448714
0.448836
0.448995
0.449194
0.449416
0.44963
0.449802
0.449914
0.449972
0.449994
0.449999
0.45
0.45
0.45
0.45
0.45
0.45
0.45
0.45
0.45
0.45
0.45
0.45
0.45
0.45
0.45
0.45
0.45
0.45
0.45
0.45
0.45
0.45
0.45
0.45
0.45
0.45
0.45
0.45
0.45
0.45
0.45
0.45
0.45
0.45
0.45
0.45
0.45
0.389012
0.389012
0.389012
0.389012
0.389012
0.389012
0.389012
0.389012
0.389013
0.38902
0.38906
0.389192
0.389503
0.390086
0.391018
0.392339
0.394042
0.396077
0.398362
0.400802
0.403306
0.405798
0.40822
0.410534
0.412718
0.414761
0.416663
0.418427
0.420059
0.42157
0.422969
0.424264
0.425465
0.426581
0.427619
0.428586
0.429489
0.430334
0.431125
0.431867
0.432565
0.433221
0.43384
0.434424
0.434977
0.4355
0.435995
0.436465
0.436912
0.437337
0.437741
0.438126
0.438494
0.438845
0.439181
0.439503
0.439811
0.440107
0.440391
0.440665
0.440928
0.441182
0.441427
0.441664
0.441893
0.442114
0.442329
0.442537
0.442739
0.442935
0.443125
0.443311
0.443491
0.443666
0.443837
0.444003
0.444165
0.444324
0.444478
0.444629
0.444776
0.44492
0.445061
0.445199
0.445334
0.445465
0.445595
0.445721
0.445845
0.445967
0.446086
0.446203
0.446317
0.44643
0.44654
0.446649
0.446755
0.44686
0.446962
0.447063
0.447162
0.44726
0.447356
0.44745
0.447543
0.447634
0.447724
0.447812
0.4479
0.447986
0.448071
0.448155
0.448237
0.448316
0.448392
0.448465
0.448539
0.448619
0.448714
0.448836
0.448995
0.449194
0.449416
0.44963
0.449802
0.449914
0.449972
0.449994
0.449999
0.45
0.45
0.45
0.45
0.45
0.45
0.45
0.45
0.45
0.45
0.45
0.45
0.45
0.45
0.45
0.45
0.45
0.45
0.45
0.45
0.45
0.45
0.45
0.45
0.45
0.45
0.45
0.45
0.45
0.45
0.45
0.45
0.45
0.45
0.45
0.45
0.45
0.389012
0.389012
0.389012
0.389012
0.389012
0.389012
0.389012
0.389012
0.389013
0.38902
0.38906
0.389192
0.389503
0.390086
0.391018
0.392339
0.394043
0.396077
0.398362
0.400802
0.403306
0.405798
0.40822
0.410534
0.412718
0.414761
0.416663
0.418427
0.420059
0.42157
0.422969
0.424264
0.425465
0.426581
0.427619
0.428586
0.429489
0.430334
0.431125
0.431867
0.432565
0.433221
0.43384
0.434424
0.434977
0.4355
0.435995
0.436465
0.436912
0.437337
0.437741
0.438127
0.438494
0.438845
0.439181
0.439503
0.439811
0.440107
0.440391
0.440665
0.440928
0.441182
0.441427
0.441664
0.441893
0.442114
0.442329
0.442537
0.442739
0.442935
0.443125
0.443311
0.443491
0.443666
0.443837
0.444003
0.444165
0.444324
0.444478
0.444629
0.444776
0.44492
0.445061
0.445199
0.445334
0.445465
0.445595
0.445721
0.445845
0.445967
0.446086
0.446203
0.446317
0.44643
0.44654
0.446649
0.446755
0.44686
0.446962
0.447063
0.447162
0.44726
0.447356
0.44745
0.447543
0.447634
0.447724
0.447812
0.4479
0.447986
0.448071
0.448155
0.448237
0.448316
0.448392
0.448465
0.448539
0.448619
0.448714
0.448836
0.448995
0.449194
0.449416
0.44963
0.449802
0.449914
0.449972
0.449994
0.449999
0.45
0.45
0.45
0.45
0.45
0.45
0.45
0.45
0.45
0.45
0.45
0.45
0.45
0.45
0.45
0.45
0.45
0.45
0.45
0.45
0.45
0.45
0.45
0.45
0.45
0.45
0.45
0.45
0.45
0.45
0.45
0.45
0.45
0.45
0.45
0.45
0.45
0.389013
0.389013
0.389013
0.389013
0.389013
0.389013
0.389013
0.389013
0.389013
0.38902
0.38906
0.389192
0.389503
0.390087
0.391019
0.39234
0.394043
0.396078
0.398363
0.400803
0.403307
0.405798
0.40822
0.410534
0.412718
0.414761
0.416663
0.418427
0.420059
0.42157
0.422969
0.424264
0.425465
0.426581
0.427619
0.428586
0.429489
0.430334
0.431125
0.431867
0.432565
0.433221
0.43384
0.434424
0.434977
0.4355
0.435995
0.436465
0.436912
0.437337
0.437741
0.438127
0.438494
0.438845
0.439181
0.439503
0.439811
0.440107
0.440391
0.440665
0.440928
0.441182
0.441427
0.441664
0.441893
0.442114
0.442329
0.442537
0.442739
0.442935
0.443125
0.443311
0.443491
0.443666
0.443837
0.444003
0.444165
0.444324
0.444478
0.444629
0.444776
0.44492
0.445061
0.445199
0.445334
0.445465
0.445595
0.445721
0.445845
0.445967
0.446086
0.446203
0.446317
0.44643
0.44654
0.446649
0.446755
0.44686
0.446962
0.447063
0.447162
0.44726
0.447356
0.44745
0.447543
0.447634
0.447724
0.447812
0.4479
0.447986
0.448071
0.448155
0.448237
0.448316
0.448392
0.448465
0.448539
0.448619
0.448714
0.448836
0.448995
0.449194
0.449416
0.44963
0.449802
0.449914
0.449972
0.449994
0.449999
0.45
0.45
0.45
0.45
0.45
0.45
0.45
0.45
0.45
0.45
0.45
0.45
0.45
0.45
0.45
0.45
0.45
0.45
0.45
0.45
0.45
0.45
0.45
0.45
0.45
0.45
0.45
0.45
0.45
0.45
0.45
0.45
0.45
0.45
0.45
0.45
0.45
0.38902
0.38902
0.38902
0.38902
0.38902
0.38902
0.38902
0.38902
0.38902
0.389027
0.389067
0.389199
0.38951
0.390093
0.391025
0.392345
0.394048
0.396082
0.398366
0.400805
0.403309
0.4058
0.408222
0.410536
0.412719
0.414762
0.416663
0.418427
0.42006
0.42157
0.422969
0.424264
0.425465
0.426581
0.427619
0.428586
0.429489
0.430334
0.431125
0.431867
0.432565
0.433221
0.43384
0.434424
0.434977
0.4355
0.435995
0.436465
0.436912
0.437337
0.437741
0.438127
0.438494
0.438845
0.439181
0.439503
0.439811
0.440107
0.440391
0.440665
0.440928
0.441182
0.441427
0.441664
0.441893
0.442114
0.442329
0.442537
0.442739
0.442935
0.443125
0.443311
0.443491
0.443666
0.443837
0.444003
0.444165
0.444324
0.444478
0.444629
0.444776
0.44492
0.445061
0.445199
0.445334
0.445465
0.445595
0.445721
0.445845
0.445967
0.446086
0.446203
0.446317
0.44643
0.44654
0.446649
0.446755
0.44686
0.446962
0.447063
0.447162
0.44726
0.447356
0.44745
0.447543
0.447634
0.447724
0.447812
0.4479
0.447986
0.448071
0.448155
0.448237
0.448316
0.448392
0.448465
0.448539
0.448619
0.448714
0.448836
0.448995
0.449194
0.449416
0.44963
0.449802
0.449914
0.449972
0.449994
0.449999
0.45
0.45
0.45
0.45
0.45
0.45
0.45
0.45
0.45
0.45
0.45
0.45
0.45
0.45
0.45
0.45
0.45
0.45
0.45
0.45
0.45
0.45
0.45
0.45
0.45
0.45
0.45
0.45
0.45
0.45
0.45
0.45
0.45
0.45
0.45
0.45
0.45
0.38906
0.38906
0.38906
0.38906
0.38906
0.38906
0.38906
0.38906
0.38906
0.389067
0.389107
0.389238
0.389548
0.39013
0.391059
0.392377
0.394076
0.396107
0.398387
0.400823
0.403323
0.405811
0.408231
0.410542
0.412724
0.414766
0.416667
0.418429
0.420062
0.421572
0.42297
0.424265
0.425466
0.426582
0.42762
0.428587
0.42949
0.430334
0.431125
0.431867
0.432565
0.433221
0.43384
0.434424
0.434977
0.4355
0.435995
0.436465
0.436912
0.437337
0.437741
0.438127
0.438494
0.438845
0.439181
0.439503
0.439811
0.440107
0.440391
0.440665
0.440928
0.441182
0.441427
0.441664
0.441893
0.442114
0.442329
0.442537
0.442739
0.442935
0.443125
0.443311
0.443491
0.443666
0.443837
0.444003
0.444165
0.444324
0.444478
0.444629
0.444776
0.44492
0.445061
0.445199
0.445334
0.445465
0.445595
0.445721
0.445845
0.445967
0.446086
0.446203
0.446317
0.44643
0.44654
0.446649
0.446755
0.44686
0.446962
0.447063
0.447162
0.44726
0.447356
0.44745
0.447543
0.447634
0.447724
0.447812
0.4479
0.447986
0.448071
0.448155
0.448237
0.448316
0.448392
0.448465
0.448539
0.448619
0.448714
0.448836
0.448995
0.449194
0.449416
0.44963
0.449802
0.449914
0.449972
0.449994
0.449999
0.45
0.45
0.45
0.45
0.45
0.45
0.45
0.45
0.45
0.45
0.45
0.45
0.45
0.45
0.45
0.45
0.45
0.45
0.45
0.45
0.45
0.45
0.45
0.45
0.45
0.45
0.45
0.45
0.45
0.45
0.45
0.45
0.45
0.45
0.45
0.45
0.45
0.389192
0.389192
0.389192
0.389192
0.389192
0.389192
0.389192
0.389192
0.389192
0.389199
0.389238
0.389369
0.389676
0.390253
0.391175
0.392483
0.394171
0.39619
0.398458
0.400882
0.403371
0.40585
0.408262
0.410567
0.412744
0.414782
0.416679
0.418439
0.420069
0.421578
0.422975
0.424269
0.425469
0.426584
0.427622
0.428588
0.429491
0.430335
0.431126
0.431868
0.432565
0.433222
0.43384
0.434425
0.434977
0.4355
0.435995
0.436465
0.436912
0.437337
0.437741
0.438127
0.438494
0.438846
0.439181
0.439503
0.439811
0.440107
0.440391
0.440665
0.440928
0.441182
0.441427
0.441664
0.441893
0.442114
0.442329
0.442537
0.442739
0.442935
0.443125
0.443311
0.443491
0.443666
0.443837
0.444003
0.444165
0.444324
0.444478
0.444629
0.444776
0.44492
0.445061
0.445199
0.445334
0.445465
0.445595
0.445721
0.445845
0.445967
0.446086
0.446203
0.446317
0.44643
0.44654
0.446649
0.446755
0.44686
0.446962
0.447063
0.447162
0.44726
0.447356
0.44745
0.447543
0.447634
0.447724
0.447812
0.4479
0.447986
0.448071
0.448155
0.448237
0.448316
0.448392
0.448465
0.448539
0.448619
0.448714
0.448836
0.448995
0.449194
0.449416
0.44963
0.449802
0.449914
0.449972
0.449994
0.449999
0.45
0.45
0.45
0.45
0.45
0.45
0.45
0.45
0.45
0.45
0.45
0.45
0.45
0.45
0.45
0.45
0.45
0.45
0.45
0.45
0.45
0.45
0.45
0.45
0.45
0.45
0.45
0.45
0.45
0.45
0.45
0.45
0.45
0.45
0.45
0.45
0.45
0.389503
0.389503
0.389503
0.389503
0.389503
0.389503
0.389503
0.389503
0.389503
0.38951
0.389548
0.389676
0.389978
0.390544
0.39145
0.392737
0.394399
0.396389
0.398629
0.401025
0.40349
0.405947
0.40834
0.41063
0.412794
0.414822
0.416711
0.418465
0.42009
0.421595
0.422988
0.42428
0.425478
0.426591
0.427627
0.428593
0.429495
0.430338
0.431128
0.43187
0.432567
0.433223
0.433842
0.434426
0.434978
0.4355
0.435996
0.436466
0.436912
0.437337
0.437741
0.438127
0.438494
0.438846
0.439182
0.439503
0.439811
0.440107
0.440391
0.440665
0.440928
0.441182
0.441427
0.441664
0.441893
0.442114
0.442329
0.442537
0.442739
0.442935
0.443125
0.443311
0.443491
0.443666
0.443837
0.444003
0.444165
0.444324
0.444478
0.444629
0.444776
0.44492
0.445061
0.445199
0.445334
0.445465
0.445595
0.445721
0.445845
0.445967
0.446086
0.446203
0.446317
0.44643
0.44654
0.446649
0.446755
0.44686
0.446962
0.447063
0.447162
0.44726
0.447356
0.44745
0.447543
0.447634
0.447724
0.447812
0.4479
0.447986
0.448071
0.448155
0.448237
0.448316
0.448392
0.448465
0.448539
0.448619
0.448714
0.448836
0.448995
0.449194
0.449416
0.44963
0.449802
0.449914
0.449972
0.449994
0.449999
0.45
0.45
0.45
0.45
0.45
0.45
0.45
0.45
0.45
0.45
0.45
0.45
0.45
0.45
0.45
0.45
0.45
0.45
0.45
0.45
0.45
0.45
0.45
0.45
0.45
0.45
0.45
0.45
0.45
0.45
0.45
0.45
0.45
0.45
0.45
0.45
0.45
0.390086
0.390086
0.390086
0.390086
0.390086
0.390086
0.390086
0.390086
0.390087
0.390093
0.39013
0.390253
0.390544
0.391091
0.391968
0.393216
0.394832
0.396771
0.398958
0.401303
0.403721
0.406137
0.408495
0.410756
0.412896
0.414904
0.416777
0.418518
0.420133
0.42163
0.423017
0.424303
0.425497
0.426607
0.42764
0.428604
0.429504
0.430346
0.431135
0.431875
0.432571
0.433227
0.433845
0.434428
0.43498
0.435502
0.435997
0.436467
0.436913
0.437338
0.437742
0.438127
0.438495
0.438846
0.439182
0.439503
0.439812
0.440107
0.440392
0.440665
0.440928
0.441182
0.441427
0.441664
0.441893
0.442115
0.442329
0.442537
0.442739
0.442935
0.443125
0.443311
0.443491
0.443666
0.443837
0.444003
0.444165
0.444324
0.444478
0.444629
0.444776
0.44492
0.445061
0.445199
0.445334
0.445465
0.445595
0.445721
0.445845
0.445967
0.446086
0.446203
0.446317
0.44643
0.44654
0.446649
0.446755
0.44686
0.446962
0.447063
0.447162
0.44726
0.447356
0.44745
0.447543
0.447634
0.447724
0.447812
0.4479
0.447986
0.448071
0.448155
0.448237
0.448316
0.448392
0.448465
0.448539
0.448619
0.448714
0.448836
0.448995
0.449194
0.449416
0.44963
0.449802
0.449914
0.449972
0.449994
0.449999
0.45
0.45
0.45
0.45
0.45
0.45
0.45
0.45
0.45
0.45
0.45
0.45
0.45
0.45
0.45
0.45
0.45
0.45
0.45
0.45
0.45
0.45
0.45
0.45
0.45
0.45
0.45
0.45
0.45
0.45
0.45
0.45
0.45
0.45
0.45
0.45
0.45
0.391018
0.391018
0.391018
0.391018
0.391018
0.391018
0.391018
0.391018
0.391019
0.391025
0.391059
0.391175
0.39145
0.391968
0.392801
0.39399
0.395534
0.397393
0.399497
0.401762
0.404106
0.406456
0.408757
0.41097
0.41307
0.415046
0.416893
0.418613
0.42021
0.421693
0.423069
0.424346
0.425532
0.426636
0.427665
0.428624
0.429521
0.43036
0.431146
0.431885
0.43258
0.433234
0.433851
0.434433
0.434984
0.435506
0.436
0.43647
0.436916
0.43734
0.437744
0.438129
0.438496
0.438847
0.439183
0.439504
0.439812
0.440108
0.440392
0.440666
0.440929
0.441183
0.441428
0.441664
0.441893
0.442115
0.442329
0.442537
0.442739
0.442935
0.443126
0.443311
0.443491
0.443666
0.443837
0.444003
0.444165
0.444324
0.444478
0.444629
0.444776
0.44492
0.445061
0.445199
0.445334
0.445466
0.445595
0.445721
0.445845
0.445967
0.446086
0.446203
0.446317
0.44643
0.44654
0.446649
0.446755
0.44686
0.446962
0.447063
0.447162
0.44726
0.447356
0.44745
0.447543
0.447634
0.447724
0.447812
0.4479
0.447986
0.448071
0.448155
0.448237
0.448316
0.448392
0.448465
0.448539
0.448619
0.448714
0.448836
0.448995
0.449194
0.449416
0.44963
0.449802
0.449914
0.449972
0.449994
0.449999
0.45
0.45
0.45
0.45
0.45
0.45
0.45
0.45
0.45
0.45
0.45
0.45
0.45
0.45
0.45
0.45
0.45
0.45
0.45
0.45
0.45
0.45
0.45
0.45
0.45
0.45
0.45
0.45
0.45
0.45
0.45
0.45
0.45
0.45
0.45
0.45
0.45
0.392339
0.392339
0.392339
0.392339
0.392339
0.392339
0.392339
0.392339
0.39234
0.392345
0.392377
0.392483
0.392737
0.393216
0.39399
0.395099
0.396545
0.398294
0.400283
0.402436
0.404675
0.406931
0.40915
0.411293
0.413335
0.415263
0.417071
0.418759
0.420331
0.421792
0.423151
0.424414
0.425589
0.426684
0.427704
0.428657
0.429549
0.430383
0.431166
0.431902
0.432594
0.433246
0.433861
0.434442
0.434992
0.435512
0.436006
0.436475
0.43692
0.437344
0.437747
0.438132
0.438499
0.438849
0.439185
0.439506
0.439814
0.440109
0.440394
0.440667
0.44093
0.441184
0.441429
0.441665
0.441894
0.442116
0.44233
0.442538
0.44274
0.442936
0.443126
0.443311
0.443491
0.443666
0.443837
0.444004
0.444166
0.444324
0.444478
0.444629
0.444777
0.444921
0.445061
0.445199
0.445334
0.445466
0.445595
0.445721
0.445845
0.445967
0.446086
0.446203
0.446317
0.44643
0.44654
0.446649
0.446755
0.44686
0.446962
0.447063
0.447162
0.44726
0.447356
0.44745
0.447543
0.447634
0.447724
0.447812
0.4479
0.447986
0.448071
0.448155
0.448237
0.448316
0.448392
0.448465
0.448539
0.448619
0.448714
0.448836
0.448995
0.449194
0.449416
0.44963
0.449802
0.449914
0.449972
0.449994
0.449999
0.45
0.45
0.45
0.45
0.45
0.45
0.45
0.45
0.45
0.45
0.45
0.45
0.45
0.45
0.45
0.45
0.45
0.45
0.45
0.45
0.45
0.45
0.45
0.45
0.45
0.45
0.45
0.45
0.45
0.45
0.45
0.45
0.45
0.45
0.45
0.45
0.45
0.394042
0.394042
0.394042
0.394042
0.394042
0.394042
0.394042
0.394043
0.394043
0.394048
0.394076
0.394171
0.394399
0.394832
0.395534
0.396545
0.39787
0.399482
0.401328
0.403338
0.405442
0.407577
0.409689
0.41174
0.413706
0.415569
0.417324
0.418968
0.420504
0.421936
0.423271
0.424514
0.425673
0.426754
0.427764
0.428708
0.429591
0.430419
0.431197
0.431928
0.432616
0.433265
0.433878
0.434456
0.435004
0.435523
0.436015
0.436482
0.436927
0.437349
0.437752
0.438136
0.438503
0.438853
0.439188
0.439509
0.439816
0.440112
0.440396
0.440669
0.440932
0.441185
0.44143
0.441667
0.441895
0.442117
0.442331
0.442539
0.442741
0.442937
0.443127
0.443312
0.443492
0.443667
0.443838
0.444004
0.444166
0.444325
0.444479
0.44463
0.444777
0.444921
0.445062
0.445199
0.445334
0.445466
0.445595
0.445722
0.445845
0.445967
0.446086
0.446203
0.446317
0.44643
0.44654
0.446649
0.446755
0.44686
0.446962
0.447063
0.447162
0.44726
0.447356
0.44745
0.447543
0.447634
0.447724
0.447812
0.4479
0.447986
0.448071
0.448155
0.448237
0.448316
0.448392
0.448465
0.448539
0.448619
0.448714
0.448836
0.448995
0.449194
0.449416
0.44963
0.449802
0.449914
0.449972
0.449994
0.449999
0.45
0.45
0.45
0.45
0.45
0.45
0.45
0.45
0.45
0.45
0.45
0.45
0.45
0.45
0.45
0.45
0.45
0.45
0.45
0.45
0.45
0.45
0.45
0.45
0.45
0.45
0.45
0.45
0.45
0.45
0.45
0.45
0.45
0.45
0.45
0.45
0.45
0.396077
0.396077
0.396077
0.396077
0.396077
0.396077
0.396077
0.396077
0.396078
0.396082
0.396107
0.39619
0.396389
0.396771
0.397393
0.398294
0.399482
0.400939
0.402618
0.404462
0.406407
0.408396
0.410378
0.412317
0.414187
0.41597
0.417657
0.419246
0.420735
0.42213
0.423433
0.42465
0.425788
0.426851
0.427846
0.428777
0.42965
0.43047
0.43124
0.431965
0.432648
0.433293
0.433901
0.434477
0.435022
0.435538
0.436028
0.436494
0.436937
0.437358
0.43776
0.438143
0.438509
0.438858
0.439193
0.439513
0.43982
0.440116
0.440399
0.440672
0.440935
0.441188
0.441433
0.441669
0.441898
0.442119
0.442333
0.442541
0.442743
0.442938
0.443128
0.443313
0.443493
0.443668
0.443839
0.444005
0.444167
0.444325
0.44448
0.444631
0.444778
0.444922
0.445062
0.4452
0.445335
0.445466
0.445596
0.445722
0.445846
0.445967
0.446086
0.446203
0.446318
0.44643
0.446541
0.446649
0.446755
0.44686
0.446963
0.447063
0.447163
0.44726
0.447356
0.44745
0.447543
0.447634
0.447724
0.447813
0.4479
0.447986
0.448071
0.448155
0.448237
0.448316
0.448392
0.448465
0.448539
0.448619
0.448714
0.448836
0.448995
0.449194
0.449416
0.44963
0.449802
0.449914
0.449972
0.449994
0.449999
0.45
0.45
0.45
0.45
0.45
0.45
0.45
0.45
0.45
0.45
0.45
0.45
0.45
0.45
0.45
0.45
0.45
0.45
0.45
0.45
0.45
0.45
0.45
0.45
0.45
0.45
0.45
0.45
0.45
0.45
0.45
0.45
0.45
0.45
0.45
0.45
0.45
0.398362
0.398362
0.398362
0.398362
0.398362
0.398362
0.398362
0.398362
0.398363
0.398366
0.398387
0.398458
0.398629
0.398958
0.399497
0.400283
0.401328
0.402618
0.404119
0.405781
0.407551
0.409376
0.411211
0.413021
0.414778
0.416466
0.418073
0.419595
0.421029
0.422376
0.42364
0.424826
0.425936
0.426977
0.427953
0.428869
0.429729
0.430537
0.431298
0.432015
0.432691
0.43333
0.433933
0.434505
0.435046
0.435559
0.436047
0.43651
0.436951
0.437371
0.437771
0.438153
0.438517
0.438866
0.4392
0.43952
0.439826
0.440121
0.440404
0.440677
0.440939
0.441192
0.441437
0.441673
0.441901
0.442122
0.442336
0.442544
0.442745
0.442941
0.443131
0.443316
0.443495
0.44367
0.443841
0.444007
0.444169
0.444327
0.444481
0.444632
0.444779
0.444923
0.445064
0.445201
0.445336
0.445467
0.445597
0.445723
0.445847
0.445968
0.446087
0.446204
0.446319
0.446431
0.446541
0.44665
0.446756
0.44686
0.446963
0.447064
0.447163
0.447261
0.447356
0.447451
0.447543
0.447635
0.447724
0.447813
0.4479
0.447986
0.448071
0.448155
0.448237
0.448316
0.448392
0.448465
0.448539
0.448619
0.448714
0.448836
0.448996
0.449194
0.449416
0.44963
0.449802
0.449914
0.449972
0.449994
0.449999
0.45
0.45
0.45
0.45
0.45
0.45
0.45
0.45
0.45
0.45
0.45
0.45
0.45
0.45
0.45
0.45
0.45
0.45
0.45
0.45
0.45
0.45
0.45
0.45
0.45
0.45
0.45
0.45
0.45
0.45
0.45
0.45
0.45
0.45
0.45
0.45
0.45
0.400802
0.400802
0.400802
0.400802
0.400802
0.400802
0.400802
0.400802
0.400803
0.400805
0.400823
0.400882
0.401025
0.401303
0.401762
0.402436
0.403338
0.404462
0.405781
0.407256
0.408842
0.410494
0.41217
0.413839
0.415473
0.417054
0.41857
0.420014
0.421383
0.422676
0.423895
0.425042
0.42612
0.427134
0.428087
0.428984
0.429828
0.430622
0.431372
0.432078
0.432746
0.433377
0.433975
0.434541
0.435078
0.435587
0.436071
0.436532
0.43697
0.437387
0.437786
0.438166
0.438529
0.438876
0.439209
0.439528
0.439834
0.440128
0.440411
0.440683
0.440945
0.441198
0.441442
0.441678
0.441906
0.442126
0.44234
0.442548
0.442749
0.442944
0.443134
0.443319
0.443498
0.443673
0.443844
0.44401
0.444171
0.444329
0.444484
0.444634
0.444781
0.444925
0.445065
0.445203
0.445337
0.445469
0.445598
0.445724
0.445848
0.445969
0.446088
0.446205
0.44632
0.446432
0.446542
0.446651
0.446757
0.446861
0.446964
0.447065
0.447164
0.447261
0.447357
0.447451
0.447544
0.447635
0.447725
0.447813
0.447901
0.447987
0.448072
0.448155
0.448237
0.448316
0.448392
0.448466
0.448539
0.448619
0.448715
0.448836
0.448996
0.449194
0.449416
0.44963
0.449802
0.449914
0.449972
0.449994
0.449999
0.45
0.45
0.45
0.45
0.45
0.45
0.45
0.45
0.45
0.45
0.45
0.45
0.45
0.45
0.45
0.45
0.45
0.45
0.45
0.45
0.45
0.45
0.45
0.45
0.45
0.45
0.45
0.45
0.45
0.45
0.45
0.45
0.45
0.45
0.45
0.45
0.45
0.403306
0.403306
0.403306
0.403306
0.403306
0.403306
0.403306
0.403306
0.403307
0.403309
0.403323
0.403371
0.40349
0.403721
0.404106
0.404675
0.405442
0.406407
0.407551
0.408842
0.410245
0.411721
0.413234
0.414755
0.416258
0.417724
0.419141
0.420501
0.421797
0.423029
0.424196
0.425299
0.42634
0.427323
0.428249
0.429123
0.429948
0.430726
0.431462
0.432157
0.432814
0.433437
0.434026
0.434586
0.435117
0.435622
0.436102
0.436558
0.436993
0.437408
0.437804
0.438182
0.438544
0.43889
0.439221
0.439539
0.439844
0.440137
0.440419
0.440691
0.440952
0.441205
0.441448
0.441684
0.441912
0.442132
0.442346
0.442553
0.442754
0.442949
0.443139
0.443323
0.443502
0.443677
0.443847
0.444013
0.444175
0.444333
0.444487
0.444637
0.444784
0.444928
0.445068
0.445205
0.44534
0.445471
0.4456
0.445726
0.44585
0.445971
0.44609
0.446207
0.446321
0.446434
0.446544
0.446652
0.446758
0.446863
0.446965
0.447066
0.447165
0.447262
0.447358
0.447452
0.447545
0.447636
0.447726
0.447814
0.447901
0.447987
0.448072
0.448156
0.448238
0.448317
0.448393
0.448466
0.44854
0.44862
0.448715
0.448837
0.448996
0.449194
0.449417
0.44963
0.449802
0.449914
0.449972
0.449994
0.449999
0.45
0.45
0.45
0.45
0.45
0.45
0.45
0.45
0.45
0.45
0.45
0.45
0.45
0.45
0.45
0.45
0.45
0.45
0.45
0.45
0.45
0.45
0.45
0.45
0.45
0.45
0.45
0.45
0.45
0.45
0.45
0.45
0.45
0.45
0.45
0.45
0.45
0.405798
0.405798
0.405798
0.405798
0.405798
0.405798
0.405798
0.405798
0.405798
0.4058
0.405811
0.40585
0.405947
0.406137
0.406456
0.406931
0.407577
0.408396
0.409376
0.410494
0.411721
0.413026
0.414378
0.415749
0.417118
0.418465
0.419778
0.421048
0.422266
0.423431
0.424541
0.425595
0.426595
0.427542
0.428439
0.429287
0.43009
0.430849
0.431569
0.43225
0.432895
0.433508
0.434089
0.434641
0.435165
0.435664
0.436139
0.436591
0.437022
0.437434
0.437827
0.438203
0.438562
0.438906
0.439236
0.439552
0.439856
0.440149
0.44043
0.440701
0.440962
0.441214
0.441457
0.441692
0.441919
0.442139
0.442353
0.442559
0.44276
0.442955
0.443144
0.443329
0.443508
0.443682
0.443852
0.444018
0.444179
0.444337
0.444491
0.444641
0.444788
0.444931
0.445071
0.445209
0.445343
0.445474
0.445603
0.445729
0.445853
0.445974
0.446093
0.446209
0.446324
0.446436
0.446546
0.446654
0.44676
0.446864
0.446967
0.447068
0.447167
0.447264
0.44736
0.447454
0.447546
0.447638
0.447727
0.447815
0.447903
0.447989
0.448074
0.448157
0.448239
0.448318
0.448394
0.448467
0.448541
0.448621
0.448716
0.448837
0.448997
0.449195
0.449417
0.449631
0.449802
0.449915
0.449972
0.449994
0.449999
0.45
0.45
0.45
0.45
0.45
0.45
0.45
0.45
0.45
0.45
0.45
0.45
0.45
0.45
0.45
0.45
0.45
0.45
0.45
0.45
0.45
0.45
0.45
0.45
0.45
0.45
0.45
0.45
0.45
0.45
0.45
0.45
0.45
0.45
0.45
0.45
0.45
0.40822
0.40822
0.40822
0.40822
0.40822
0.40822
0.40822
0.40822
0.40822