/*--------------------------------*- C++ -*----------------------------------*\
  =========                 |
  \\      /  F ield         | OpenFOAM: The Open Source CFD Toolbox
   \\    /   O peration     | Website:  https://openfoam.org
    \\  /    A nd           | Version:  13
     \\/     M anipulation  |
\*---------------------------------------------------------------------------*/
FoamFile
{
    format      ascii;
    class       volScalarField;
    location    "0.0013";
    object      p;
}
// * * * * * * * * * * * * * * * * * * * * * * * * * * * * * * * * * * * * * //

dimensions      [1 -1 -2 0 0 0 0];

internalField   nonuniform List<scalar> 
33334
(
556487
556487
556487
556487
556487
556487
556487
556486
556469
556311
555663
554035
550965
546106
539281
530514
520020
508156
495350
482032
468577
455284
442364
429952
418118
406890
396265
386219
376720
367728
359204
351109
343406
336061
329043
322325
315882
309691
303733
297992
292454
287109
281946
276962
272155
267527
263087
258848
254832
251070
247599
244465
241712
239381
237485
235999
234807
233872
233083
232464
232023
231653
231287
230907
230514
230114
229715
229320
228932
228555
228188
227832
227487
227152
226828
226512
226205
225906
225614
225329
225050
224777
224510
224249
223995
223747
223505
223270
223040
222815
222594
222377
222165
221957
221753
221554
221359
221169
220982
220798
220617
220439
220265
220093
219925
219760
219598
219439
219283
219129
218979
218830
218683
218541
218402
218259
218110
217999
217872
217749
217629
217531
217486
217533
217686
217852
217804
217459
216679
216211
216137
215567
215342
215132
214910
214691
214483
214264
214049
213843
213640
213440
213243
213050
212860
212673
212488
212305
212123
211944
211769
211598
211432
211271
211115
210959
210786
210550
210112
209077
206296
198567
178654
141539
109073
100490
556487
556487
556487
556487
556487
556487
556487
556486
556469
556311
555663
554035
550965
546106
539281
530514
520020
508156
495350
482031
468577
455284
442364
429951
418118
406890
396265
386219
376720
367728
359204
351109
343406
336061
329043
322325
315882
309690
303733
297992
292454
287109
281946
276962
272155
267527
263087
258848
254832
251070
247599
244465
241712
239381
237485
235999
234808
233871
233083
232464
232023
231653
231287
230907
230514
230114
229715
229320
228932
228555
228188
227832
227487
227152
226828
226512
226205
225906
225614
225329
225050
224777
224510
224250
223995
223747
223505
223270
223041
222815
222594
222377
222165
221957
221753
221554
221359
221169
220982
220798
220617
220439
220265
220093
219925
219760
219598
219439
219283
219130
218979
218830
218684
218541
218402
218259
218110
217999
217873
217749
217630
217532
217488
217536
217688
217853
217803
217458
216678
216209
216136
215567
215342
215132
214910
214691
214483
214264
214049
213843
213640
213440
213243
213050
212860
212673
212488
212305
212123
211944
211769
211598
211432
211271
211115
210959
210787
210550
210112
209077
206296
198568
178654
141539
109074
100490
556487
556487
556487
556487
556487
556487
556487
556486
556469
556311
555663
554035
550965
546106
539281
530514
520020
508156
495350
482031
468577
455284
442364
429951
418118
406890
396265
386219
376720
367728
359204
351109
343406
336061
329043
322325
315882
309690
303733
297992
292454
287109
281946
276962
272155
267527
263086
258848
254832
251070
247599
244465
241712
239381
237485
235999
234808
233871
233083
232464
232023
231653
231287
230907
230514
230114
229715
229320
228932
228555
228188
227832
227487
227152
226828
226512
226205
225906
225614
225329
225050
224777
224510
224250
223995
223747
223505
223270
223041
222815
222594
222377
222165
221957
221753
221554
221359
221169
220982
220798
220617
220439
220265
220093
219925
219760
219598
219439
219283
219129
218979
218830
218684
218541
218402
218259
218110
217999
217873
217749
217629
217533
217488
217535
217687
217852
217804
217459
216679
216209
216136
215567
215342
215132
214910
214691
214483
214264
214049
213843
213640
213440
213243
213050
212860
212673
212488
212305
212123
211944
211769
211598
211432
211271
211115
210959
210786
210550
210112
209077
206296
198568
178654
141539
109074
100490
556487
556487
556487
556487
556487
556487
556487
556486
556469
556311
555663
554035
550965
546106
539281
530514
520020
508156
495350
482031
468577
455284
442364
429951
418118
406890
396265
386219
376719
367728
359204
351109
343406
336061
329043
322325
315882
309690
303733
297992
292454
287109
281946
276962
272155
267527
263086
258848
254832
251070
247599
244465
241712
239381
237485
235999
234808
233871
233083
232464
232023
231653
231287
230907
230514
230114
229715
229320
228932
228555
228188
227832
227487
227152
226828
226512
226205
225906
225614
225329
225050
224777
224510
224250
223995
223747
223505
223270
223041
222815
222594
222377
222165
221957
221753
221554
221359
221169
220982
220798
220617
220439
220265
220093
219925
219760
219598
219439
219283
219130
218979
218830
218684
218541
218402
218259
218110
217999
217873
217749
217630
217532
217488
217535
217687
217853
217804
217459
216679
216209
216137
215567
215342
215132
214910
214691
214483
214264
214049
213843
213640
213440
213243
213050
212860
212673
212488
212305
212123
211944
211769
211598
211432
211271
211115
210959
210786
210550
210112
209077
206296
198568
178654
141540
109074
100490
556487
556487
556487
556487
556487
556487
556487
556486
556469
556311
555663
554035
550965
546106
539281
530514
520020
508156
495350
482031
468577
455284
442364
429951
418118
406890
396265
386219
376719
367728
359204
351108
343406
336061
329043
322325
315881
309690
303733
297992
292454
287108
281946
276962
272155
267527
263086
258848
254832
251070
247599
244464
241712
239381
237485
235998
234808
233871
233083
232464
232023
231653
231287
230907
230514
230114
229715
229320
228932
228555
228188
227832
227487
227152
226828
226512
226205
225906
225614
225329
225050
224777
224510
224250
223995
223747
223505
223270
223041
222815
222594
222377
222165
221957
221753
221554
221359
221169
220982
220798
220617
220439
220265
220093
219925
219760
219598
219439
219283
219130
218979
218830
218684
218541
218402
218259
218110
217999
217873
217749
217630
217532
217488
217535
217687
217853
217804
217459
216679
216210
216137
215567
215342
215132
214910
214692
214483
214264
214049
213843
213640
213440
213243
213050
212860
212673
212488
212305
212123
211944
211769
211598
211432
211271
211115
210959
210786
210550
210112
209077
206296
198568
178655
141540
109074
100490
556487
556487
556487
556487
556487
556487
556487
556486
556469
556311
555663
554035
550965
546106
539281
530514
520020
508156
495350
482031
468576
455284
442364
429951
418118
406890
396265
386219
376719
367727
359203
351108
343406
336061
329043
322325
315881
309690
303733
297992
292454
287108
281946
276962
272155
267527
263086
258848
254832
251070
247599
244464
241712
239380
237485
235998
234808
233871
233083
232464
232023
231653
231287
230907
230514
230114
229715
229320
228932
228555
228188
227832
227487
227152
226828
226512
226205
225906
225614
225329
225050
224777
224510
224250
223995
223747
223505
223270
223041
222815
222594
222377
222165
221957
221753
221554
221359
221169
220982
220798
220617
220439
220265
220093
219925
219760
219598
219439
219283
219130
218979
218830
218684
218541
218402
218259
218110
217999
217873
217749
217630
217532
217488
217535
217687
217853
217804
217460
216679
216210
216137
215567
215342
215132
214910
214692
214483
214264
214049
213843
213640
213440
213243
213050
212860
212673
212488
212305
212123
211944
211769
211598
211432
211271
211115
210959
210786
210550
210112
209077
206296
198568
178655
141540
109074
100490
556487
556487
556487
556487
556487
556487
556487
556486
556469
556311
555663
554035
550965
546106
539281
530514
520020
508156
495350
482031
468576
455283
442364
429951
418118
406890
396265
386219
376719
367727
359203
351108
343406
336061
329043
322325
315881
309690
303733
297992
292454
287108
281946
276962
272155
267527
263086
258847
254832
251070
247599
244464
241712
239380
237485
235998
234808
233871
233083
232464
232023
231653
231287
230907
230514
230115
229715
229320
228932
228555
228188
227832
227487
227152
226828
226512
226205
225906
225614
225329
225050
224777
224510
224250
223995
223747
223505
223270
223041
222815
222594
222377
222165
221957
221753
221554
221359
221169
220982
220798
220617
220439
220265
220093
219925
219760
219598
219439
219283
219130
218979
218830
218684
218542
218402
218259
218110
217999
217873
217749
217630
217532
217488
217535
217687
217853
217804
217460
216680
216210
216137
215567
215342
215132
214910
214692
214483
214264
214049
213843
213640
213440
213243
213050
212860
212673
212488
212305
212123
211944
211769
211598
211432
211271
211115
210959
210786
210550
210112
209077
206296
198568
178655
141540
109074
100490
556486
556486
556486
556486
556486
556486
556486
556486
556468
556311
555663
554034
550964
546105
539280
530513
520019
508155
495349
482031
468576
455283
442363
429951
418117
406890
396265
386219
376719
367727
359203
351108
343405
336061
329043
322325
315881
309690
303733
297992
292454
287108
281946
276962
272155
267527
263086
258847
254832
251070
247599
244464
241712
239380
237485
235998
234808
233871
233083
232464
232023
231653
231287
230907
230514
230115
229715
229320
228932
228555
228188
227832
227487
227152
226828
226512
226205
225906
225614
225329
225050
224777
224510
224250
223995
223747
223505
223270
223041
222815
222594
222377
222165
221957
221753
221554
221359
221169
220982
220798
220617
220439
220265
220093
219925
219760
219598
219439
219283
219130
218979
218830
218684
218542
218402
218259
218110
217999
217873
217749
217630
217532
217488
217535
217687
217853
217804
217460
216680
216210
216137
215567
215342
215132
214910
214692
214483
214264
214049
213843
213640
213440
213243
213050
212860
212673
212488
212305
212123
211944
211769
211598
211432
211271
211115
210959
210786
210550
210112
209077
206296
198568
178655
141541
109074
100490
556469
556469
556469
556469
556469
556469
556469
556468
556451
556294
555645
554017
550947
546089
539264
530498
520005
508142
495337
482020
468566
455275
442356
429944
418112
406885
396261
386215
376716
367725
359201
351107
343404
336060
329042
322324
315881
309690
303732
297992
292454
287108
281946
276962
272155
267527
263086
258847
254832
251070
247599
244464
241712
239380
237485
235998
234808
233871
233083
232464
232023
231653
231287
230907
230514
230115
229715
229320
228932
228555
228188
227832
227487
227152
226828
226512
226205
225906
225614
225329
225050
224777
224510
224250
223995
223747
223505
223270
223041
222815
222594
222377
222165
221957
221753
221554
221359
221169
220982
220798
220617
220439
220265
220093
219925
219760
219598
219439
219283
219130
218979
218830
218684
218542
218402
218259
218110
217999
217873
217749
217630
217532
217488
217535
217687
217853
217805
217460
216680
216210
216137
215567
215342
215132
214910
214692
214483
214264
214049
213843
213640
213440
213243
213050
212860
212673
212488
212305
212123
211944
211769
211598
211432
211271
211115
210959
210786
210550
210112
209077
206296
198568
178655
141541
109075
100490
556311
556311
556311
556311
556311
556311
556311
556311
556294
556136
555488
553861
550793
545938
539118
530358
519873
508020
495225
481917
468474
455192
442282
429879
418054
406834
396216
386177
376683
367696
359176
351085
343385
336044
329029
322313
315871
309682
303725
297986
292449
287104
281943
276959
272153
267525
263085
258846
254831
251069
247598
244464
241711
239380
237484
235998
234808
233871
233083
232464
232023
231653
231287
230907
230514
230115
229715
229320
228932
228555
228188
227832
227487
227152
226828
226512
226205
225906
225614
225329
225050
224777
224510
224250
223995
223747
223505
223270
223041
222815
222594
222377
222165
221957
221753
221554
221359
221169
220982
220798
220617
220439
220265
220093
219925
219760
219598
219439
219283
219130
218979
218830
218684
218542
218402
218259
218110
217999
217873
217750
217630
217533
217488
217535
217687
217853
217805
217460
216680
216210
216137
215567
215342
215132
214910
214692
214483
214264
214049
213843
213640
213440
213243
213050
212860
212673
212488
212305
212123
211944
211769
211598
211432
211271
211115
210959
210786
210550
210112
209077
206296
198568
178656
141541
109075
100490
555663
555663
555663
555663
555663
555663
555663
555663
555645
555488
554842
553219
550159
545317
538517
529783
519330
507512
494755
481486
468081
454835
441959
429587
417791
406597
396002
385984
376510
367540
359037
350960
343274
335944
328940
322234
315802
309620
303672
297939
292408
287069
281912
276933
272130
267506
263068
258832
254819
251059
247590
244457
241706
239375
237481
235995
234805
233869
233081
232463
232022
231652
231286
230906
230513
230114
229715
229319
228932
228555
228188
227832
227487
227152
226828
226512
226205
225906
225614
225329
225050
224777
224510
224250
223995
223747
223505
223270
223041
222815
222594
222377
222165
221957
221753
221554
221359
221169
220982
220798
220617
220439
220265
220093
219925
219760
219598
219439
219283
219130
218979
218830
218684
218542
218402
218259
218111
217999
217873
217750
217630
217533
217488
217535
217687
217853
217805
217460
216680
216210
216138
215567
215342
215132
214910
214692
214483
214264
214049
213843
213640
213440
213243
213050
212860
212673
212488
212305
212123
211944
211769
211598
211432
211271
211115
210959
210786
210550
210112
209077
206296
198568
178656
141541
109075
100490
554035
554035
554035
554035
554035
554035
554035
554034
554017
553861
553219
551606
548567
543760
537011
528342
517968
506238
493574
480398
467083
453923
441127
428827
417097
405963
395423
385454
376024
367095
358629
350586
342931
335630
328653
321971
315561
309401
303472
297757
292243
286919
281777
276811
272020
267408
262981
258754
254750
250998
247536
244409
241664
239339
237449
235967
234782
233849
233063
232448
232009
231641
231277
230898
230507
230109
229710
229316
228929
228552
228186
227830
227486
227151
226827
226511
226204
225905
225614
225328
225050
224777
224510
224249
223995
223747
223505
223270
223041
222815
222594
222377
222165
221957
221753
221554
221359
221169
220982
220798
220617
220439
220265
220093
219925
219760
219598
219439
219283
219130
218979
218830
218684
218542
218402
218259
218111
217999
217873
217750
217630
217533
217488
217535
217687
217853
217805
217460
216680
216210
216138
215567
215342
215133
214910
214692
214483
214264
214049
213843
213640
213440
213243
213050
212860
212673
212488
212305
212123
211944
211769
211598
211432
211271
211115
210959
210786
210550
210112
209077
206296
198568
178656
141542
109075
100490
550965
550965
550965
550965
550965
550965
550965
550964
550947
550793
550159
548567
545570
540831
534178
525636
515412
503849
491359
478358
465211
452208
439555
427387
415774
404746
394301
384417
375065
366206
357804
349820
342219
334967
328036
321397
315027
308903
303009
297327
291843
286548
281433
276492
271725
267135
262729
258523
254537
250802
247357
244245
241513
239201
237323
235851
234680
233755
232976
232370
231939
231577
231219
230847
230461
230068
229674
229284
228902
228528
228165
227812
227470
227138
226815
226502
226196
225898
225608
225324
225046
224774
224508
224247
223993
223745
223504
223269
223040
222815
222594
222377
222165
221957
221753
221554
221359
221169
220982
220798
220617
220439
220265
220093
219925
219760
219598
219439
219283
219130
218979
218830
218684
218542
218402
218259
218111
217999
217873
217750
217630
217533
217488
217536
217687
217853
217805
217460
216680
216210
216138
215567
215342
215133
214910
214692
214483
214264
214050
213843
213640
213440
213243
213050
212860
212673
212488
212305
212123
211944
211769
211598
211432
211271
211115
210959
210787
210550
210112
209078
206296
198568
178656
141542
109075
100490
546106
546106
546106
546106
546106
546106
546106
546105
546089
545938
545317
543760
540831
536202
529707
521369
511387
500091
487880
475155
462272
449515
437086
425119
413687
402820
392517
382762
373525
364770
356461
348563
341040
333861
326996
320419
314106
308037
302193
296558
291119
285866
280791
275888
271157
266601
262227
258051
254094
250386
246967
243879
241170
238878
237020
235567
234418
233507
232741
232152
231734
231386
231041
230681
230307
229926
229543
229163
228790
228426
228071
227727
227393
227068
226752
226444
226145
225852
225567
225287
225013
224745
224483
224225
223974
223729
223490
223257
223029
222806
222586
222371
222159
221952
221750
221551
221357
221167
220980
220797
220616
220439
220264
220093
219925
219760
219598
219439
219283
219130
218979
218830
218684
218542
218402
218259
218111
217999
217873
217750
217630
217533
217488
217536
217688
217853
217805
217460
216680
216210
216138
215567
215342
215133
214910
214692
214483
214264
214050
213843
213640
213440
213243
213050
212860
212673
212488
212305
212123
211944
211769
211598
211432
211271
211115
210959
210787
210550
210112
209078
206296
198569
178656
141542
109075
100490
539281
539281
539281
539281
539281
539281
539281
539280
539264
539118
538517
537011
534178
529707
523438
515390
505751
494833
483016
470680
458169
445755
433638
421951
410767
400120
390013
380431
371348
362732
354549
346764
339345
332261
325483
318987
312750
306751
300972
295399
290019
284821
279798
274944
270260
265748
261417
257281
253362
249691
246305
243250
240571
238307
236476
235048
233927
233035
232287
231722
231322
230993
230667
230325
229969
229605
229238
228875
228518
228169
227829
227499
227178
226866
226563
226268
225980
225699
225424
225155
224891
224632
224379
224130
223887
223649
223417
223191
222970
222752
222538
222327
222121
221918
221719
221524
221333
221146
220962
220781
220603
220427
220254
220084
219917
219754
219593
219434
219279
219127
218976
218828
218682
218540
218401
218258
218110
217998
217873
217749
217630
217533
217488
217536
217688
217853
217805
217460
216680
216211
216138
215567
215342
215133
214910
214692
214483
214264
214050
213843
213640
213440
213243
213050
212860
212673
212488
212305
212123
211944
211769
211598
211432
211271
211115
210959
210787
210550
210112
209078
206296
198569
178657
141542
109075
100490
530514
530514
530514
530514
530514
530514
530514
530513
530498
530358
529783
528342
525636
521369
515390
507715
498517
488085
476772
464936
452900
440927
429210
417879
407012
396644
386783
377420
368531
360088
352060
344416
337124
330156
323486
317088
310943
305029
299330
293832
288522
283391
278430
273636
269009
264551
260271
256184
252311
248684
245339
242323
239680
237451
235651
234252
233165
232294
231570
231033
230656
230348
230045
229725
229391
229048
228702
228359
228022
227693
227372
227061
226758
226465
226179
225901
225630
225365
225106
224853
224604
224360
224121
223886
223656
223432
223213
222999
222790
222584
222381
222181
221984
221791
221602
221416
221233
221054
220878
220704
220532
220363
220196
220032
219870
219711
219554
219400
219249
219099
218952
218807
218663
218524
218387
218246
218099
217990
217866
217744
217626
217530
217487
217535
217687
217853
217805
217460
216680
216211
216138
215567
215342
215133
214910
214692
214483
214264
214050
213843
213640
213440
213243
213050
212860
212673
212488
212305
212123
211944
211769
211598
211432
211271
211115
210959
210787
210550
210112
209078
206296
198569
178657
141543
109075
100490
520020
520020
520020
520020
520020
520020
520020
520019
520005
519873
519330
517968
515412
511387
505751
498517
489839
479983
469268
458026
446557
435109
423869
412964
402474
392439
382872
373768
365108
356870
349025
341545
334402
327570
321024
314741
308701
302885
297278
291866
286637
281582
276693
271968
267405
263009
258787
254755
250935
247358
244060
241088
238486
236295
234532
233163
232112
231264
230567
230061
229710
229426
229147
228852
228542
228223
227900
227580
227266
226959
226660
226371
226090
225817
225552
225294
225043
224798
224559
224324
224095
223869
223648
223431
223219
223012
222810
222613
222420
222230
222042
221858
221676
221498
221323
221151
220982
220816
220653
220492
220332
220175
220019
219866
219715
219566
219419
219274
219131
218990
218851
218714
218578
218445
218316
218183
218044
217944
217825
217710
217600
217512
217475
217528
217684
217852
217805
217461
216680
216211
216138
215568
215342
215133
214910
214692
214483
214264
214050
213843
213640
213440
213243
213050
212860
212673
212488
212305
212124
211944
211769
211598
211432
211271
211115
210959
210787
210550
210112
209078
206296
198569
178657
141543
109075
100490
508156
508156
508156
508156
508156
508156
508156
508155
508142
508020
507512
506238
503849
500091
494833
488085
479983
470762
460711
450131
439296
428438
417735
407312
397249
387591
378356
369545
361145
353138
345498
338204
331228
324548
318140
311984
306062
300355
294850
289533
284393
279421
274612
269962
265470
261141
256983
253012
249250
245726
242480
239555
236998
234848
233123
231791
230771
229946
229280
228806
228481
228222
227968
227699
227413
227119
226821
226525
226235
225951
225676
225409
225151
224901
224658
224422
224193
223970
223751
223538
223329
223124
222923
222727
222535
222347
222165
221987
221813
221641
221473
221307
221143
220983
220826
220671
220520
220371
220224
220079
219936
219794
219654
219515
219379
219245
219112
218981
218853
218726
218601
218478
218356
218238
218124
218007
217884
217803
217699
217604
217513
217444
217426
217497
217667
217845
217803
217460
216680
216211
216138
215568
215342
215133
214910
214692
214483
214264
214050
213843
213640
213440
213243
213050
212860
212673
212488
212305
212124
211944
211769
211598
211432
211271
211115
210959
210787
210550
210112
209078
206296
198569
178657
141543
109076
100490
495350
495350
495350
495350
495350
495350
495350
495349
495337
495225
494755
493574
491359
487880
483016
476772
469268
460711
451357
441474
431313
421085
410958
401053
391453
382204
373331
364840
356723
348966
341551
334458
327664
321148
314890
308872
303077
297487
292091
286876
281831
276950
272225
267654
263238
258981
254892
250985
247283
243817
240624
237749
235238
233131
231446
230151
229162
228361
227722
227282
226983
226749
226520
226275
226014
225744
225471
225199
224932
224672
224420
224177
223941
223713
223493
223280
223073
222871
222674
222483
222295
222111
221932
221756
221585
221418
221256
221098
220944
220793
220645
220498
220355
220214
220076
219941
219808
219678
219550
219423
219298
219174
219052
218932
218813
218697
218582
218470
218359
218252
218147
218043
217943
217848
217757
217666
217567
217518
217443
217379
217321
217285
217302
217406
217607
217812
217788
217456
216680
216211
216138
215568
215342
215133
214910
214692
214483
214264
214050
213843
213640
213440
213243
213050
212860
212673
212488
212305
212124
211944
211769
211598
211432
211271
211115
210959
210787
210550
210112
209078
206296
198569
178657
141543
109076
100490
482032
482031
482031
482031
482031
482031
482031
482031
482020
481917
481486
480398
478358
475155
470680
464936
458026
450131
441474
432295
422816
413232
403698
394332
385213
376393
367901
359746
351928
344437
337259
330378
323776
317434
311335
305463
299800
294335
289053
283945
279000
274212
269576
265089
260752
256569
252551
248711
245072
241665
238527
235703
233239
231176
229530
228271
227312
226536
225925
225513
225241
225030
224825
224604
224367
224120
223870
223621
223377
223140
222910
222689
222475
222269
222070
221878
221692
221512
221336
221165
220999
220836
220677
220522
220371
220224
220082
219945
219811
219680
219551
219425
219301
219180
219062
218946
218833
218722
218613
218505
218399
218295
218192
218091
217992
217896
217802
217711
217623
217539
217459
217383
217310
217245
217185
217130
217067
217055
217024
217004
216992
217004
217068
217221
217472
217723
217740
217436
216674
216210
216138
215568
215342
215133
214910
214692
214483
214264
214050
213843
213640
213440
213243
213050
212860
212673
212488
212305
212124
211944
211769
211598
211432
211271
211115
210959
210787
210550
210112
209078
206296
198569
178657
141543
109076
100490
468577
468577
468577
468577
468577
468576
468576
468576
468566
468474
468081
467083
465211
462272
458169
452900
446557
439296
431313
422816
414006
405057
396114
387286
378654
370270
362166
354356
346845
339629
332696
326036
319632
313470
307535
301813
296288
290950
285787
280789
275947
271256
266711
262310
258054
253947
250001
246229
242655
239308
236226
233453
231036
229016
227410
226186
225253
224503
223919
223533
223286
223097
222914
222715
222500
222275
222047
221820
221597
221380
221171
220970
220777
220592
220413
220241
220075
219914
219758
219606
219459
219316
219176
219040
218908
218781
218658
218540
218425
218313
218203
218096
217991
217888
217789
217691
217597
217505
217414
217326
217239
217153
217070
216989
216912
216838
216767
216701
216640
216584
216534
216489
216452
216423
216403
216391
216375
216400
216426
216459
216505
216574
216698
216914
217230
217547
217627
217375
216650
216204
216138
215568
215343
215133
214910
214692
214483
214264
214050
213843
213640
213440
213243
213050
212860
212673
212488
212305
212124
211944
211769
211598
211432
211271
211115
210959
210787
210550
210112
209078
206297
198569
178657
141544
109076
100490
455284
455284
455284
455284
455284
455284
455283
455283
455275
455192
454835
453923
452208
449515
445755
440927
435109
428438
421085
413232
405057
396718
388346
380044
371891
363938
356220
348757
341555
334615
327931
321494
315292
309314
303546
297976
292592
287384
282341
277455
272718
268125
263672
259358
255184
251155
247282
243579
240069
236783
233757
231035
228665
226688
225119
223929
223021
222295
221738
221375
221151
220983
220820
220641
220447
220242
220033
219826
219622
219425
219235
219052
218878
218710
218550
218396
218248
218105
217967
217833
217703
217577
217455
217337
217223
217113
217007
216906
216809
216714
216621
216531
216443
216358
216276
216196
216118
216043
215971
215900
215831
215765
215702
215642
215587
215537
215492
215454
215422
215398
215383
215376
215379
215394
215418
215458
215496
215562
215647
215740
215848
215983
216174
216462
216854
217253
217417
217245
216583
216178
216133
215566
215342
215133
214911
214692
214483
214264
214050
213843
213640
213440
213243
213050
212860
212673
212488
212305
212124
211945
211769
211598
211432
211272
211115
210959
210787
210550
210112
209078
206297
198569
178658
141544
109076
100490
442364
442364
442364
442364
442364
442364
442364
442363
442356
442282
441959
441127
439555
437086
433638
429210
423869
417735
410958
403698
396114
388346
380514
372715
365021
357487
350147
343023
336127
329462
323025
316811
310811
305016
299416
294000
288757
283680
278758
273985
269353
264859
260499
256272
252180
248229
244429
240795
237350
234123
231153
228482
226158
224223
222692
221532
220647
219944
219414
219072
218867
218718
218574
218414
218238
218051
217861
217671
217484
217304
217131
216966
216808
216657
216513
216375
216243
216116
215994
215876
215762
215651
215545
215442
215343
215248
215158
215073
214991
214911
214834
214759
214686
214617
214549
214485
214423
214364
214308
214254
214203
214156
214113
214076
214045
214020
214003
213996
213997
214009
214033
214068
214116
214177
214251
214344
214441
214554
214697
214851
215024
215227
215490
215854
216329
216819
217083
217012
216444
216105
216114
215558
215340
215133
214911
214692
214483
214264
214050
213843
213640
213440
213243
213050
212860
212673
212489
212305
212124
211945
211769
211598
211432
211272
211115
210959
210787
210550
210112
209078
206297
198569
178658
141544
109076
100490
429952
429951
429951
429951
429951
429951
429951
429951
429944
429879
429587
428827
427387
425119
421951
417879
412964
407312
401053
394332
387286
380044
372715
365386
358128
350993
344015
337220
330621
324224
318030
312036
306236
300623
295189
289925
284824
279876
275075
270414
265888
261492
257224
253084
249074
245201
241473
237908
234527
231360
228444
225823
223545
221650
220154
219025
218161
217479
216974
216653
216465
216333
216206
216063
215903
215733
215558
215384
215214
215049
214891
214741
214597
214461
214331
214208
214090
213977
213869
213764
213664
213568
213475
213385
213300
213219
213142
213070
213001
212935
212871
212809
212750
212693
212640
212589
212541
212497
212456
212419
212386
212359
212337
212323
212317
212320
212334
212359
212397
212448
212514
212594
212689
212800
212925
213072
213228
213392
213590
213807
214043
214313
214647
215087
215646
216232
216604
216651
216202
215953
216063
215532
215330
215131
214911
214693
214484
214264
214050
213843
213640
213440
213243
213050
212860
212674
212489
212305
212124
211945
211769
211598
211432
211272
211115
210959
210787
210550
210112
209078
206297
198569
178658
141544
109076
100490
418118
418118
418118
418118
418118
418118
418118
418117
418112
418054
417791
417097
415774
413687
410767
407012
402474
397249
391453
385213
378654
371891
365021
358128
351276
344516
337883
331401
325087
318949
312990
307210
301606
296171
290901
285787
280825
276006
271324
266774
262352
258053
253877
249823
245895
242097
238442
234944
231626
228518
225656
223085
220851
218995
217533
216432
215588
214926
214444
214142
213969
213853
213741
213613
213469
213313
213153
212993
212836
212685
212541
212404
212274
212150
212033
211922
211817
211716
211620
211528
211439
211355
211274
211196
211122
211053
210988
210927
210870
210815
210762
210712
210664
210619
210577
210539
210504
210474
210448
210428
210413
210406
210406
210417
210438
210472
210519
210580
210656
210748
210858
210984
211128
211290
211466
211665
211879
212096
212347
212622
212919
213253
213655
214167
214808
215487
215968
216143
215832
215686
215948
215477
215301
215120
214909
214693
214484
214265
214050
213843
213640
213440
213243
213050
212860
212674
212489
212305
212124
211945
211769
211598
211432
211272
211115
210959
210787
210550
210112
209078
206297
198569
178658
141544
109076
100490
406890
406890
406890
406890
406890
406890
406890
406890
406885
406834
406597
405963
404746
402820
400120
396644
392439
387591
382204
376393
370270
363938
357487
350993
344516
338105
331794
325608
319565
313675
307942
302369
296953
291692
286581
281615
276788
272095
267530