/*--------------------------------*- C++ -*----------------------------------*\
  =========                 |
  \\      /  F ield         | OpenFOAM: The Open Source CFD Toolbox
   \\    /   O peration     | Website:  https://openfoam.org
    \\  /    A nd           | Version:  13
     \\/     M anipulation  |
\*---------------------------------------------------------------------------*/
FoamFile
{
    format      ascii;
    class       surfaceScalarField;
    location    "0.0013";
    object      phi;
}
// * * * * * * * * * * * * * * * * * * * * * * * * * * * * * * * * * * * * * //

dimensions      [1 0 -1 0 0 0 0];

internalField   nonuniform List<scalar> 
66301
(
-1.22125e-15
-1.33227e-15
-2.88658e-15
-9.99201e-16
-4.55191e-15
-9.99201e-16
-4.77396e-15
-1.22125e-15
3.9968e-15
-2.22045e-16
4.46636e-11
5.55112e-16
3.8088e-08
2.03948e-13
4.31955e-06
2.78106e-11
0.00010042
7.14979e-10
0.000766182
6.03992e-09
0.00291763
2.45786e-08
0.00738083
6.4505e-08
0.0145858
1.29734e-07
0.0245529
2.1944e-07
0.0369474
3.29084e-07
0.0511887
4.52072e-07
0.0665961
5.81639e-07
0.0825214
7.12352e-07
0.0984376
8.40778e-07
0.113973
9.65356e-07
0.128904
1.08569e-06
0.143126
1.20164e-06
0.156615
1.31289e-06
0.1694
1.41889e-06
0.181531
1.52041e-06
0.193071
1.61888e-06
0.204081
1.71501e-06
0.214621
1.80936e-06
0.22474
1.90239e-06
0.234485
1.99441e-06
0.243891
2.0842e-06
0.252992
2.17057e-06
0.261812
2.24907e-06
0.270375
2.33256e-06
0.278697
2.41344e-06
0.286794
2.49529e-06
0.294675
2.57925e-06
0.302351
2.66427e-06
0.309826
2.74733e-06
0.317105
2.82739e-06
0.324187
2.90497e-06
0.331069
2.98132e-06
0.337747
3.05792e-06
0.344208
3.13607e-06
0.350435
3.21693e-06
0.356404
3.3019e-06
0.362081
3.39287e-06
0.367421
3.49237e-06
0.372365
3.60346e-06
0.37684
3.72965e-06
0.380762
3.87432e-06
0.384038
4.03968e-06
0.386581
4.22965e-06
0.388328
4.4544e-06
0.389287
4.74203e-06
0.389512
5.60024e-06
0.389473
4.167e-06
0.388975
5.10755e-06
0.388268
5.27724e-06
0.38728
5.42288e-06
0.386114
5.24932e-06
0.384938
5.26873e-06
0.38383
5.29251e-06
0.382806
5.27779e-06
0.381854
5.23272e-06
0.380955
5.21414e-06
0.380095
5.19634e-06
0.379265
5.15078e-06
0.378459
5.07444e-06
0.37767
5.00679e-06
0.376898
4.97399e-06
0.376139
4.95317e-06
0.375393
4.93604e-06
0.374659
4.91756e-06
0.373938
4.91735e-06
0.373229
4.90715e-06
0.372533
4.89433e-06
0.37185
4.87118e-06
0.37118
4.84296e-06
0.370522
4.84204e-06
0.369877
4.79866e-06
0.369243
4.818e-06
0.368621
4.75713e-06
0.368009
4.78691e-06
0.367405
4.72056e-06
0.366809
4.75816e-06
0.366218
4.66995e-06
0.365635
4.73128e-06
0.365061
4.65558e-06
0.364497
4.67998e-06
0.363942
4.67712e-06
0.363395
4.59484e-06
0.362856
4.6509e-06
0.362323
4.60324e-06
0.361796
4.53681e-06
0.361276
4.60367e-06
0.36076
4.54807e-06
0.360251
4.52539e-06
0.359748
4.45905e-06
0.359253
4.50007e-06
0.358764
4.47057e-06
0.358281
4.43916e-06
0.357804
4.37387e-06
0.357332
4.25418e-06
0.356864
4.1893e-06
0.356401
4.21171e-06
0.355943
4.32477e-06
0.355491
4.41686e-06
0.355048
4.39039e-06
0.354614
4.21477e-06
0.354187
4.05282e-06
0.353761
4.1806e-06
0.353317
4.38212e-06
0.352848
4.35358e-06
0.35238
2.97784e-06
0.351959
9.1459e-09
0.351572
-3.51839e-06
0.351555
-5.31442e-06
0.352177
-9.60506e-06
0.354238
-1.65927e-05
0.359163
-2.51318e-05
0.369253
-3.14135e-05
0.387894
-3.29172e-05
0.419557
-3.04526e-05
0.469157
-2.97621e-05
0.539541
-3.02169e-05
0.626119
-2.6027e-05
0.711951
-1.29594e-05
0.773676
2.28412e-06
0.805443
1.49077e-05
0.811549
2.33339e-06
0.8117
1.625e-06
0.809874
-1.42278e-06
0.807659
-4.06648e-06
0.805246
-6.28681e-06
0.802889
-7.90557e-06
0.800793
-8.46339e-06
0.798874
-8.31129e-06
0.797171
-7.88983e-06
0.795679
-7.48727e-06
0.794299
-7.18644e-06
0.792932
-6.97812e-06
0.791521
-6.82746e-06
0.790062
-6.71143e-06
0.788578
-6.6136e-06
0.787098
-6.53692e-06
0.785639
-6.4919e-06
0.784212
-6.45951e-06
0.782822
-6.43585e-06
0.781468
-6.41847e-06
0.780152
-6.40432e-06
0.778871
-6.39046e-06
0.777623
-6.37489e-06
0.776403
-6.35632e-06
0.775194
-6.33877e-06
0.773939
-6.34618e-06
0.772446
-6.41073e-06
0.770173
-6.50963e-06
0.765591
-6.57109e-06
0.754243
-6.55918e-06
0.723187
-6.4573e-06
0.637727
-6.12362e-06
0.434091
-5.19553e-06
0.145439
-2.8253e-06
0.0119974
-6.66021e-07
-4.36602e-08
-6.66134e-16
-3.55271e-15
-2.66454e-15
-2.9976e-15
-4.21885e-15
-2.22045e-15
-4.996e-15
-1.88738e-15
4.21885e-15
-1.66533e-15
4.46659e-11
-1.33227e-15
3.80899e-08
1.08802e-13
4.31972e-06
1.58853e-11
0.000100423
4.74373e-10
0.000766201
4.45552e-09
0.0029177
1.96305e-08
0.00738099
5.47512e-08
0.0145861
1.15331e-07
0.0245535
2.02162e-07
0.0369483
3.11912e-07
0.0511901
4.38482e-07
0.066598
5.74749e-07
0.0825241
7.1426e-07
0.0984411
8.52416e-07
0.113977
9.86596e-07
0.128909
1.11507e-06
0.143132
1.23607e-06
0.156623
1.3475e-06
0.169409
1.45188e-06
0.181542
1.55242e-06
0.193083
1.64948e-06
0.204095
1.74382e-06
0.214637
1.8361e-06
0.224758
1.92713e-06
0.234504
2.01433e-06
0.243913
2.10079e-06
0.253016
2.18742e-06
0.261839
2.26688e-06
0.270404
2.35021e-06
0.278728
2.42752e-06
0.286827
2.50342e-06
0.294711
2.58366e-06
0.30239
2.66747e-06
0.309868
2.7519e-06
0.317149
2.83552e-06
0.324234
2.91747e-06
0.33112
2.99791e-06
0.3378
3.07792e-06
0.344264
3.15882e-06
0.350494
3.24197e-06
0.356466
3.32899e-06
0.362147
3.42182e-06
0.36749
3.52296e-06
0.372438
3.63494e-06
0.376917
3.76045e-06
0.380843
3.90259e-06
0.384123
4.06816e-06
0.386669
4.26664e-06
0.388421
4.50784e-06
0.389384
4.7876e-06
0.389618
5.05897e-06
0.38958
5.12788e-06
0.389087
5.04507e-06
0.388385
5.03579e-06
0.387403
5.30773e-06
0.386242
5.35491e-06
0.385072
5.33562e-06
0.383968
5.30034e-06
0.38295
5.30062e-06
0.382003
5.28814e-06
0.381109
5.26352e-06
0.380255
5.21807e-06
0.37943
5.16882e-06
0.378628
5.1064e-06
0.377845
5.05171e-06
0.377077
5.0265e-06
0.376323
4.98635e-06
0.375582
4.97527e-06
0.374853
4.93484e-06
0.374137
4.94764e-06
0.373433
4.91642e-06
0.372742
4.90509e-06
0.372064
4.89254e-06
0.371398
4.8225e-06
0.370746
4.88979e-06
0.370105
4.73252e-06
0.369476
4.88055e-06
0.368859
4.67199e-06
0.368252
4.84428e-06
0.367653
4.61748e-06
0.367061
4.82791e-06
0.366475
4.51669e-06
0.365897
4.81119e-06
0.365328
4.54647e-06
0.364768
4.56992e-06
0.364218
4.76437e-06
0.363676
4.36901e-06
0.363141
4.57874e-06
0.362613
4.66286e-06
0.362091
4.27668e-06
0.361575
4.48113e-06
0.361065
4.49316e-06
0.36056
4.43672e-06
0.360062
4.11599e-06
0.359571
4.35988e-06
0.359087
4.39133e-06
0.358609
4.16918e-06
0.358136
4.03233e-06
0.357668
4.00098e-06
0.357205
4.05593e-06
0.356747
3.95414e-06
0.356293
3.90371e-06
0.355846
3.92822e-06
0.355408
3.85524e-06
0.354979
3.56168e-06
0.354557
3.28765e-06
0.354135
3.70597e-06
0.353697
3.54047e-06
0.353234
3.08576e-06
0.35277
1.61051e-06
0.352348
-7.84552e-07
0.351958
-2.35693e-06
0.351936
-5.56142e-06
0.352545
-7.93283e-06
0.354583
-1.33481e-05
0.359473
-2.03524e-05
0.369518
-1.84573e-05
0.388112
-1.64921e-05
0.419728
-1.97871e-05
0.469282
-2.09713e-05
0.539627
-2.64245e-05
0.626182
-3.06042e-05
0.71203
-3.39402e-05
0.773801
-2.47312e-05
0.805616
-1.33612e-05
0.811754
-9.29069e-06
0.811907
-7.55749e-06
0.810092
-5.89256e-06
0.807874
-6.94953e-06
0.805456
-7.70013e-06
0.803091
-8.10565e-06
0.800986
-8.14415e-06
0.799058
-7.83069e-06
0.797347
-7.43254e-06
0.795847
-7.1135e-06
0.794459
-6.88123e-06
0.793085
-6.69937e-06
0.791666
-6.54111e-06
0.7902
-6.39667e-06
0.78871
-6.26521e-06
0.787222
-6.18596e-06
0.785757
-6.11459e-06
0.784323
-6.05525e-06
0.782926
-6.008e-06
0.781565
-5.97026e-06
0.780242
-5.93864e-06
0.778954
-5.90967e-06
0.777699
-5.88112e-06
0.776472
-5.85414e-06
0.775256
-5.83894e-06
0.773994
-5.85734e-06
0.772494
-5.91649e-06
0.770214
-5.9832e-06
0.765624
-6.02513e-06
0.754269
-6.02688e-06
0.723205
-5.94028e-06
0.637739
-5.55212e-06
0.434097
-4.12048e-06
0.145442
-2.07901e-06
0.0119978
-4.30444e-07
-2.33296e-08
-7.77156e-16
-4.32987e-15
-2.22045e-15
-4.55191e-15
-2.88658e-15
-3.66374e-15
-3.66374e-15
-3.10862e-15
4.44089e-15
-1.88738e-15
4.46683e-11
-2.66454e-15
3.80919e-08
7.31637e-14
4.31987e-06
1.2601e-11
0.000100426
3.89038e-10
0.000766212
3.71256e-09
0.00291772
1.66162e-08
0.00738103
4.73073e-08
0.0145862
1.02031e-07
0.0245536
1.83053e-07
0.0369484
2.8833e-07
0.0511902
4.12789e-07
0.0665981
5.49686e-07
0.0825242
6.92188e-07
0.0984412
8.34582e-07
0.113977
9.72812e-07
0.128909
1.10426e-06
0.143132
1.22752e-06
0.156623
1.34089e-06
0.169409
1.44622e-06
0.181542
1.54706e-06
0.193083
1.64395e-06
0.204095
1.73771e-06
0.214637
1.82915e-06
0.224758
1.91954e-06
0.234505
2.00369e-06
0.243913
2.08741e-06
0.253016
2.17191e-06
0.261839
2.25549e-06
0.270404
2.33752e-06
0.278728
2.41588e-06
0.286827
2.49233e-06
0.294711
2.56765e-06
0.30239
2.64502e-06
0.309868
2.72508e-06
0.317149
2.80721e-06
0.324234
2.89005e-06
0.33112
2.97256e-06
0.3378
3.05462e-06
0.344264
3.13691e-06
0.350494
3.22095e-06
0.356466
3.3086e-06
0.362147
3.40193e-06
0.36749
3.50347e-06
0.372438
3.61568e-06
0.376917
3.74113e-06
0.380843
3.88259e-06
0.384123
4.04547e-06
0.386669
4.24169e-06
0.388421
4.47299e-06
0.389384
4.72419e-06
0.389618
4.8908e-06
0.38958
5.15492e-06
0.389087
5.04343e-06
0.388385
5.04459e-06
0.387403
5.20206e-06
0.386242
5.35628e-06
0.385072
5.35994e-06
0.383968
5.32291e-06
0.38295
5.28103e-06
0.382003
5.27517e-06
0.381109
5.2586e-06
0.380255
5.2111e-06
0.37943
5.1656e-06
0.378628
5.11369e-06
0.377845
5.06723e-06
0.377077
5.04668e-06
0.376323
4.9926e-06
0.375582
4.99111e-06
0.374853
4.93393e-06
0.374137
4.95854e-06
0.373433
4.90842e-06
0.372742
4.90012e-06
0.372064
4.89472e-06
0.371398
4.79272e-06
0.370746
4.91664e-06
0.370105
4.66643e-06
0.369476
4.92535e-06
0.368859
4.58355e-06
0.368252
4.8834e-06
0.367653
4.51328e-06
0.367061
4.87787e-06
0.366475
4.37589e-06
0.365897
4.86698e-06
0.365328
4.42362e-06
0.364768
4.47195e-06
0.364218
4.81299e-06
0.363676
4.15939e-06
0.363141
4.5073e-06
0.362613
4.67578e-06
0.362091
4.03986e-06
0.361575
4.36408e-06
0.361065
4.40631e-06
0.36056
4.3185e-06
0.360062
3.82579e-06
0.359571
4.22554e-06
0.359087
4.27254e-06
0.358609
3.90033e-06
0.358136
3.72495e-06
0.357669
3.76172e-06
0.357205
3.89318e-06
0.356747
3.67776e-06
0.356293
3.4992e-06
0.355846
3.46488e-06
0.355408
3.35558e-06
0.354979
2.95373e-06
0.354557
2.54311e-06
0.354135
2.51786e-06
0.353697
2.75508e-06
0.353234
2.25672e-06
0.352771
6.91701e-07
0.352348
-1.51385e-06
0.351959
-2.62009e-06
0.351936
-5.56628e-06
0.352545
-6.82205e-06
0.354581
-9.46849e-06
0.359471
-1.15948e-05
0.369518
-1.3297e-05
0.388109
-1.43159e-05
0.419717
-1.58702e-05
0.469263
-1.81932e-05
0.539604
-2.48716e-05
0.626165
-3.45933e-05
0.71202
-4.13804e-05
0.7738
-3.28836e-05
0.805618
-2.58742e-05
0.811755
-1.40377e-05
0.811908
-1.17418e-05
0.810093
-1.03669e-05
0.807875
-9.70421e-06
0.805456
-9.08657e-06
0.803091
-8.3592e-06
0.800986
-7.96751e-06
0.799059
-7.61819e-06
0.797347
-7.22593e-06
0.795847
-6.91949e-06
0.794459
-6.69325e-06
0.793085
-6.50803e-06
0.791667
-6.34372e-06
0.7902
-6.19632e-06
0.78871
-6.06905e-06
0.787222
-5.97104e-06
0.785757
-5.88017e-06
0.784323
-5.80335e-06
0.782925
-5.74124e-06
0.781565
-5.69193e-06
0.780241
-5.65194e-06
0.778954
-5.61873e-06
0.777699
-5.59143e-06
0.776472
-5.5737e-06
0.775256
-5.57431e-06
0.773994
-5.59952e-06
0.772494
-5.64201e-06
0.770213
-5.68501e-06
0.765624
-5.71289e-06
0.754268
-5.68831e-06
0.723205
-5.52775e-06
0.637739
-5.10222e-06
0.434098
-3.80106e-06
0.145443
-1.87053e-06
0.011998
-3.82758e-07
-2.02359e-08
-1.33227e-15
-4.996e-15
-1.11022e-15
-5.21805e-15
-2.55351e-15
-4.77396e-15
-2.77556e-15
-4.21885e-15
5.10703e-15
-3.21965e-15
4.46716e-11
-2.9976e-15
3.80936e-08
-2.22045e-15
4.32e-06
8.18157e-12
0.000100428
2.9747e-10
0.000766222
3.05186e-09
0.00291775
1.41423e-08
0.00738108
4.09077e-08
0.0145862
8.92629e-08
0.0245537
1.62261e-07
0.0369485
2.58915e-07
0.0511903
3.7508e-07
0.0665982
5.04865e-07
0.0825243
6.41991e-07
0.0984412
7.80878e-07
0.113977
9.17266e-07
0.128909
1.04849e-06
0.143132
1.17318e-06
0.156623
1.29093e-06
0.169409
1.40131e-06
0.181542
1.50477e-06
0.193083
1.60295e-06
0.204095
1.69683e-06
0.214637
1.78742e-06
0.224758
1.87596e-06
0.234505
1.9603e-06
0.243913
2.04285e-06
0.253016
2.12429e-06
0.261839
2.20709e-06
0.270404
2.28786e-06
0.278728
2.36778e-06
0.286827
2.44581e-06
0.294711
2.51946e-06
0.30239
2.59184e-06
0.309868
2.66637e-06
0.317149
2.74382e-06
0.324234
2.82361e-06
0.33112
2.90465e-06
0.3378
2.98625e-06
0.344264
3.06861e-06
0.350494
3.15284e-06
0.356466
3.2406e-06
0.362147
3.33377e-06
0.36749
3.43484e-06
0.372438
3.54642e-06
0.376917
3.67148e-06
0.380843
3.81311e-06
0.384123
3.97634e-06
0.38667
4.16794e-06
0.388421
4.38948e-06
0.389384
4.61949e-06
0.389617
4.83873e-06
0.38958
5.05144e-06
0.389087
5.03912e-06
0.388385
5.05078e-06
0.387403
5.09276e-06
0.386242
5.20115e-06
0.385071
5.28291e-06
0.383968
5.28669e-06
0.38295
5.23865e-06
0.382003
5.21477e-06
0.381109
5.19315e-06
0.380255
5.1516e-06
0.37943
5.11354e-06
0.378628
5.07153e-06
0.377845
5.03192e-06
0.377077
5.01802e-06
0.376323
4.96068e-06
0.375582
4.96739e-06
0.374853
4.90068e-06
0.374137
4.9299e-06
0.373433
4.86831e-06
0.372742
4.85852e-06
0.372064
4.85796e-06
0.371398
4.7357e-06
0.370746
4.8908e-06
0.370105
4.58931e-06
0.369476
4.90944e-06
0.368859
4.49064e-06
0.368252
4.86996e-06
0.367653
4.40389e-06
0.367061
4.87014e-06
0.366475
4.24259e-06
0.365897
4.85643e-06
0.365328
4.30821e-06
0.364768
4.37031e-06
0.364218
4.78575e-06
0.363676
3.98509e-06
0.363141
4.41978e-06
0.362613
4.60863e-06
0.362091
3.84412e-06
0.361575
4.24466e-06
0.361065
4.27348e-06
0.36056
4.1692e-06
0.360062
3.58486e-06
0.359571
4.0702e-06
0.359087
4.09744e-06
0.358609
3.64402e-06
0.358136
3.44851e-06
0.357668
3.51403e-06
0.357205
3.668e-06
0.356747
3.37556e-06
0.356293
3.10432e-06
0.355846
3.00299e-06
0.355408
2.86759e-06
0.354979
2.42984e-06
0.354557
1.94182e-06
0.354135
1.74082e-06
0.353697
1.76105e-06
0.353234
1.30521e-06
0.35277
-2.13628e-07
0.352348
-2.23916e-06
0.351959
-3.50065e-06
0.351935
-5.51288e-06
0.352544
-6.3796e-06
0.354581
-8.28744e-06
0.35947
-1.05312e-05
0.369512
-1.26967e-05
0.388097
-1.44585e-05
0.419698
-1.59228e-05
0.469237
-1.91093e-05
0.539572
-2.57627e-05
0.626132
-3.42698e-05
0.711997
-3.76978e-05
0.773793
-3.22464e-05
0.80562
-2.66896e-05
0.811759
-1.54767e-05
0.811912
-1.36261e-05
0.810094
-1.24374e-05
0.807875
-1.12099e-05
0.805455
-1.00124e-05
0.803091
-8.89078e-06
0.800986
-8.191e-06
0.799059
-7.67998e-06
0.797347
-7.24441e-06
0.795847
-6.91988e-06
0.794459
-6.67683e-06
0.793085
-6.47397e-06
0.791666
-6.29188e-06
0.7902
-6.1329e-06
0.78871
-5.99599e-06
0.787222
-5.8755e-06
0.785756
-5.77219e-06
0.784323
-5.68697e-06
0.782925
-5.61769e-06
0.781565
-5.5626e-06
0.780241
-5.51825e-06
0.778953
-5.48391e-06
0.777699
-5.45987e-06
0.776471
-5.44837e-06
0.775255
-5.45203e-06
0.773993
-5.46828e-06
0.772493
-5.48963e-06
0.770213
-5.50403e-06
0.765623
-5.49477e-06
0.754268
-5.43185e-06
0.723204
-5.29272e-06
0.637739
-4.8821e-06
0.4341
-3.75014e-06
0.145445
-1.86497e-06
0.0119983
-3.82563e-07
-2.02612e-08
-5.55112e-16
2.9976e-15
-1.44329e-15
3.77476e-15
-2.22045e-15
3.66374e-15
-2.10942e-15
3.55271e-15
5.32907e-15
3.21965e-15
4.46733e-11
3.33067e-15
3.8095e-08
-4.55191e-14
4.32012e-06
1.81832e-12
0.000100429
1.23689e-10
0.000766232
1.77081e-09
0.00291778
1.00655e-08
0.00738113
3.1824e-08
0.0145863
7.24346e-08
0.0245538
1.34077e-07
0.0369486
2.17951e-07
0.0511904
3.21289e-07
0.0665984
4.38811e-07
0.0825244
5.65295e-07
0.0984413
6.95712e-07
0.113977
8.25472e-07
0.128909
9.51944e-07
0.143132
1.07375e-06
0.156624
1.19019e-06
0.169409
1.30068e-06
0.181542
1.40552e-06
0.193083
1.5053e-06
0.204095
1.60066e-06
0.214637
1.69238e-06
0.224758
1.78102e-06
0.234505
1.86796e-06
0.243913
1.95237e-06
0.253016
2.03481e-06
0.261839
2.11648e-06
0.270404
2.19644e-06
0.278729
2.27638e-06
0.286827
2.35426e-06
0.294712
2.42819e-06
0.30239
2.50064e-06
0.309868
2.57313e-06
0.317149
2.64736e-06
0.324234
2.72391e-06
0.33112
2.80277e-06
0.3378
2.88322e-06
0.344264
2.9655e-06
0.350494
3.05049e-06
0.356467
3.13926e-06
0.362147
3.23351e-06
0.36749
3.33526e-06
0.372438
3.44708e-06
0.376917
3.57167e-06
0.380843
3.71236e-06
0.384123
3.87385e-06
0.38667
4.05762e-06
0.388421
4.26911e-06
0.389384
4.49175e-06
0.389617
4.69679e-06
0.38958
4.89386e-06
0.389087
4.95041e-06
0.388385
4.99401e-06
0.387403
4.99099e-06
0.386242
5.01609e-06
0.385071
5.11385e-06
0.383968
5.17915e-06
0.38295
5.16278e-06
0.382003
5.13107e-06
0.381109
5.09523e-06
0.380254
5.05124e-06
0.37943
5.01953e-06
0.378628
4.98775e-06
0.377845
4.95335e-06
0.377077
4.94626e-06
0.376323
4.88864e-06
0.375582
4.90356e-06
0.374853
4.82932e-06
0.374137
4.86055e-06
0.373433
4.7902e-06
0.372742
4.77834e-06
0.372064
4.78285e-06
0.371398
4.64523e-06
0.370746
4.82259e-06
0.370105
4.48546e-06
0.369476
4.84838e-06
0.368859
4.37132e-06
0.368252
4.81563e-06
0.367653
4.26676e-06
0.367061
4.82031e-06
0.366475
4.08986e-06
0.365897
4.79768e-06
0.365328
4.17137e-06
0.364768
4.25046e-06
0.364218
4.70666e-06
0.363676
3.80099e-06
0.363141
4.30708e-06
0.362613
4.49493e-06
0.362091
3.64351e-06
0.361575
4.10712e-06
0.361065
4.10818e-06
0.36056
3.98798e-06
0.360062
3.34977e-06
0.359571
3.89438e-06
0.359087
3.88512e-06
0.358609
3.37232e-06
0.358136
3.16791e-06
0.357668
3.24519e-06
0.357205
3.3914e-06
0.356747
3.03291e-06
0.356293
2.69673e-06
0.355846
2.53099e-06
0.355408
2.35696e-06
0.354978
1.92414e-06
0.354557
1.45131e-06
0.354135
1.16383e-06
0.353696
9.40561e-07
0.353233
3.35219e-07
0.352769
-1.10513e-06
0.352347
-2.88614e-06
0.351958
-4.2406e-06
0.351934
-5.60047e-06
0.352543
-6.36041e-06
0.354579
-7.9935e-06
0.359467
-1.02109e-05
0.369507
-1.22845e-05
0.388088
-1.39504e-05
0.419685
-1.57087e-05
0.469217
-1.90612e-05
0.539547
-2.45927e-05
0.626105
-3.04543e-05
0.711979
-3.19005e-05
0.773786
-2.85681e-05
0.805621
-2.36902e-05
0.811762
-1.56062e-05
0.811915
-1.4347e-05
0.810096
-1.32399e-05
0.807875
-1.18893e-05
0.805456
-1.05849e-05
0.803091
-9.38551e-06
0.800986
-8.51951e-06
0.799059
-7.8995e-06
0.797347
-7.40181e-06
0.795847
-7.02994e-06
0.794459
-6.74933e-06
0.793085
-6.52094e-06
0.791666
-6.32175e-06
0.7902
-6.14931e-06
0.78871
-6.0015e-06
0.787222
-5.8688e-06
0.785756
-5.75372e-06
0.784323
-5.65273e-06
0.782925
-5.57169e-06
0.781564
-5.50921e-06
0.780241
-5.45859e-06
0.778953
-5.41969e-06
0.777698
-5.39222e-06
0.776471
-5.37585e-06
0.775255
-5.36987e-06
0.773993
-5.37031e-06
0.772493
-5.36903e-06
0.770212
-5.36246e-06
0.765623
-5.34959e-06
0.754267
-5.31992e-06
0.723205
-5.18808e-06
0.63774
-4.7648e-06
0.434102
-3.703e-06
0.145447
-1.84462e-06
0.0119986
-3.78135e-07
-2.00233e-08
-3.33067e-16
4.46627e-11
-1.33227e-15
4.46654e-11
-1.9984e-15
4.46696e-11
-2.88658e-15
4.46718e-11
4.32987e-15
4.46718e-11
4.46808e-11
4.46782e-11
3.80964e-08
4.46223e-11
4.32022e-06
4.29824e-11
0.000100431
6.17204e-11
0.000766239
1.08063e-09
0.0029178
7.15328e-09
0.00738117
2.39699e-08
0.0145864
5.77011e-08
0.0245538
1.1142e-07
0.0369487
1.83938e-07
0.0511905
2.72819e-07
0.0665985
3.76631e-07
0.0825246
4.90681e-07
0.0984415
6.10562e-07
0.113978
7.32022e-07
0.12891
8.51958e-07
0.143133
9.68933e-07
0.156624
1.08239e-06
0.169409
1.19087e-06
0.181542
1.29473e-06
0.193083
1.39429e-06
0.204096
1.49025e-06
0.214637
1.58253e-06
0.224758
1.67008e-06
0.234505
1.75436e-06
0.243913
1.83788e-06
0.253016
1.91992e-06
0.261839
2.00132e-06
0.270404
2.08163e-06
0.278729
2.16111e-06
0.286827
2.24016e-06
0.294712
2.31732e-06
0.30239
2.39111e-06
0.309868
2.46361e-06
0.317149
2.53583e-06
0.324234
2.60915e-06
0.33112
2.68512e-06
0.3378
2.76262e-06
0.344264
2.84286e-06
0.350494
2.92639e-06
0.356467
3.01368e-06
0.362147
3.10868e-06
0.36749
3.21131e-06
0.372438
3.32374e-06
0.376917
3.44796e-06
0.380843
3.58691e-06
0.384123
3.74254e-06
0.38667
3.91858e-06
0.388421
4.11722e-06
0.389384
4.32651e-06
0.389618
4.5282e-06
0.38958
4.73829e-06
0.389087
4.81548e-06
0.388385
4.88189e-06
0.387403
4.88193e-06
0.386242
4.86389e-06
0.385071
4.92132e-06
0.383968
4.99917e-06
0.38295
5.03371e-06
0.382003
5.0213e-06
0.381109
4.98513e-06
0.380254
4.93824e-06
0.37943
4.90484e-06
0.378628
4.87767e-06
0.377845
4.84482e-06
0.377077
4.84246e-06
0.376323
4.7844e-06
0.375582
4.80594e-06
0.374853
4.72527e-06
0.374137
4.75737e-06
0.373433
4.68182e-06
0.372742
4.66877e-06
0.372064
4.67917e-06
0.371398
4.53083e-06
0.370746
4.72272e-06
0.370105
4.36408e-06
0.369476
4.75406e-06
0.368859
4.23377e-06
0.368251
4.73089e-06
0.367653
4.10972e-06
0.367061
4.74025e-06
0.366475
3.92458e-06
0.365897
4.7049e-06
0.365328
4.01634e-06
0.364768
4.11239e-06
0.364218
4.59137e-06
0.363676
3.61117e-06
0.363141
4.17277e-06
0.362613
4.34831e-06
0.362091
3.44023e-06
0.361575
3.94925e-06
0.361064
3.91964e-06
0.36056
3.78479e-06
0.360062
3.11906e-06
0.359571
3.69925e-06
0.359087
3.64985e-06
0.358609
3.09682e-06
0.358136
2.89063e-06
0.357668
2.97269e-06
0.357205
3.09692e-06
0.356747
2.68307e-06
0.356293
2.30658e-06
0.355846
2.09766e-06
0.355407
1.87935e-06
0.354978
1.42958e-06
0.354556
9.73259e-07
0.354134
6.73715e-07
0.353696
3.43901e-07
0.353232
-3.9268e-07
0.352768
-1.80873e-06
0.352346
-3.45161e-06
0.351956
-4.69088e-06
0.351933
-5.76951e-06
0.352541
-6.44672e-06
0.354578
-7.80129e-06
0.359465
-9.48663e-06
0.369504
-1.10844e-05
0.388084
-1.2814e-05
0.419679
-1.47607e-05
0.469208
-1.77431e-05
0.539534
-2.17467e-05
0.626092
-2.54944e-05
0.711969
-2.65899e-05
0.773782
-2.47028e-05
0.805623
-2.08349e-05
0.811764
-1.52579e-05
0.811917
-1.43963e-05
0.810097
-1.33797e-05
0.807876
-1.20783e-05
0.805456
-1.08432e-05
0.803091
-9.66964e-06
0.800986
-8.75968e-06
0.799059
-8.10342e-06
0.797347
-7.57377e-06
0.795847
-7.17147e-06
0.794459
-6.86444e-06
0.793085
-6.61553e-06
0.791666
-6.40128e-06
0.7902
-6.20941e-06
0.78871
-6.0368e-06
0.787222
-5.88892e-06
0.785756
-5.75971e-06
0.784322
-5.6479e-06
0.782925
-5.55574e-06
0.781564
-5.47757e-06
0.780241
-5.41833e-06
0.778953
-5.37302e-06
0.777698
-5.33886e-06
0.776471
-5.31452e-06
0.775255
-5.29882e-06
0.773993
-5.29018e-06
0.772493
-5.28188e-06
0.770212
-5.27353e-06
0.765623
-5.26095e-06
0.754268
-5.2244e-06
0.723205
-5.08608e-06
0.637741
-4.6704e-06
0.434104
-3.62008e-06
0.145449
-1.80026e-06
0.0119989
-3.6888e-07
-1.95447e-08
1.99285e-13
3.8088e-08
1.06581e-13
3.80899e-08
7.14984e-14
3.80919e-08
-1.88738e-15
3.80936e-08
-4.4631e-14
3.8095e-08
4.46234e-11
3.80964e-08
3.80975e-08
3.80975e-08
4.32032e-06
3.80952e-08
0.000100433
3.81265e-08
0.000766247
3.94788e-08
0.00291782
4.52091e-08
0.00738121
5.95112e-08
0.0145864
8.72085e-08
0.0245539
1.31338e-07
0.0369488
1.91496e-07
0.0511906
2.72114e-07
0.0665986
3.67956e-07
0.0825247
4.74236e-07
0.0984416
5.86879e-07
0.113978
7.02381e-07
0.12891
8.17176e-07
0.143133
9.29403e-07
0.156624
1.03898e-06
0.169409
1.14496e-06
0.181542
1.24705e-06
0.193083
1.34514e-06
0.204096
1.43993e-06
0.214637
1.53194e-06
0.224758
1.61978e-06
0.234505
1.70421e-06
0.243913
1.78831e-06
0.253016
1.87155e-06
0.261839
1.95671e-06
0.270404
2.03658e-06
0.278729
2.11176e-06
0.286827
2.18047e-06
0.294712
2.24932e-06
0.30239
2.31788e-06
0.309868
2.38549e-06
0.317149
2.45261e-06
0.324234
2.52081e-06
0.33112
2.59127e-06
0.3378
2.66312e-06
0.344264
2.73869e-06
0.350494
2.8181e-06
0.356467
2.90117e-06
0.362147
2.99049e-06
0.36749
3.08552e-06
0.372438
3.19686e-06
0.376917
3.31768e-06
0.380843
3.45237e-06
0.384123
3.60161e-06
0.38667
3.76835e-06
0.388421
3.95225e-06
0.389385
4.14552e-06
0.389618
4.33564e-06
0.38958
4.55698e-06
0.389087
4.65053e-06
0.388385
4.74031e-06
0.387403
4.76606e-06
0.386242
4.73176e-06
0.385071
4.75267e-06
0.383968
4.81647e-06
0.38295
4.86955e-06
0.382003
4.88081e-06
0.381109
4.8567e-06
0.380254
4.81654e-06
0.37943
4.78351e-06
0.378628
4.75895e-06
0.377845
4.72386e-06
0.377077
4.72305e-06
0.376323
4.66193e-06
0.375582
4.68737e-06
0.374853
4.60107e-06
0.374137
4.6338e-06
0.373433
4.5573e-06
0.372742
4.54396e-06
0.372064
4.56137e-06
0.371398
4.40566e-06
0.370745
4.60599e-06
0.370105
4.23576e-06
0.369476
4.64013e-06
0.368859
4.0894e-06
0.368251
4.62867e-06
0.367653
3.94439e-06
0.367061
4.6424e-06
0.366475
3.75533e-06
0.365897
4.59151e-06
0.365328
3.8558e-06
0.364768
3.96644e-06
0.364218
4.45713e-06
0.363676
3.42517e-06
0.363141
4.02749e-06
0.362613
4.18453e-06
0.362091
3.24358e-06
0.361575
3.78246e-06
0.361064
3.72557e-06
0.36056
3.57577e-06
0.360061
2.89821e-06
0.35957
3.49615e-06
0.359086
3.40943e-06
0.358608
2.82912e-06
0.358136
2.62168e-06
0.357668
2.70621e-06
0.357205
2.80645e-06
0.356746
2.34712e-06
0.356293
1.94013e-06
0.355846
1.70533e-06
0.355407
1.46377e-06
0.354978
9.96726e-07
0.354556
5.23854e-07
0.354134
2.05353e-07
0.353695
-1.49219e-07
0.353231
-9.07059e-07
0.352767
-2.27508e-06
0.352345
-3.83047e-06
0.351955
-4.93584e-06
0.351931
-5.89063e-06
0.352539
-6.43588e-06
0.354576
-7.53957e-06
0.359464
-8.91023e-06
0.369503
-1.04168e-05
0.388084
-1.20484e-05
0.419677
-1.37136e-05
0.469206
-1.58631e-05
0.539531
-1.84195e-05
0.626089
-2.07705e-05
0.711967
-2.1996e-05
0.773781
-2.12178e-05
0.805625
-1.85008e-05
0.811766
-1.4656e-05
0.811919
-1.4041e-05
0.810098
-1.31317e-05
0.807877
-1.19492e-05
0.805457
-1.08348e-05
0.803092
-9.74609e-06
0.800986
-8.87297e-06
0.799059
-8.22723e-06
0.797347
-7.69374e-06
0.795847
-7.27847e-06
0.79446
-6.9574e-06
0.793085
-6.69567e-06
0.791666
-6.46791e-06
0.7902
-6.2628e-06
0.78871
-6.07927e-06
0.787222
-5.91696e-06
0.785756
-5.77389e-06
0.784322
-5.65e-06
0.782925
-5.54509e-06
0.781564
-5.45837e-06
0.780241
-5.3901e-06
0.778953
-5.3363e-06
0.777698
-5.29426e-06
0.776471
-5.26212e-06
0.775255
-5.23833e-06
0.773993
-5.22073e-06
0.772493
-5.20551e-06
0.770212
-5.19222e-06
0.765623
-5.17312e-06
0.754268
-5.12162e-06
0.723205
-4.97247e-06
0.637742
-4.55665e-06
0.434106
-3.52443e-06
0.14545
-1.75067e-06
0.0119992
-3.58403e-07
-1.89748e-08
2.78098e-11
4.31955e-06
1.58804e-11
4.31972e-06
1.25963e-11
4.31987e-06
8.18046e-12
4.32e-06
1.81977e-12
4.32012e-06
4.29887e-11
4.32022e-06
3.80953e-08
4.32032e-06
4.32039e-06
4.32039e-06
0.000100434
4.32039e-06
0.000766254
4.32029e-06
0.00291783
4.32035e-06
0.00738124
4.31837e-06
0.0145865
4.30759e-06
0.024554
4.28084e-06
0.0369489
4.23231e-06
0.0511907
4.15189e-06
0.0665987
4.03609e-06
0.0825247
3.88399e-06
0.0984417
3.70091e-06
0.113978
3.49895e-06
0.12891
3.28866e-06
0.143133
3.07968e-06
0.156624
2.88077e-06
0.16941
2.7e-06
0.181542
2.54279e-06
0.193083
2.41056e-06
0.204096
2.30372e-06
0.214637
2.22082e-06
0.224759
2.16273e-06
0.234505
2.12829e-06
0.243913
2.10839e-06
0.253016
2.10252e-06
0.261839
2.10966e-06
0.270404
2.12867e-06
0.278729
2.16205e-06
0.286828
2.20557e-06
0.294712
2.25539e-06
0.30239
2.3101e-06
0.309868
2.36713e-06
0.317149
2.42644e-06
0.324234
2.4886e-06
0.33112
2.55355e-06
0.3378
2.62122e-06
0.344264
2.69296e-06
0.350495
2.76944e-06
0.356467
2.85005e-06
0.362147
2.93699e-06
0.36749
3.03249e-06
0.372438
3.14628e-06
0.376917
3.24848e-06
0.380843
3.36682e-06
0.384124
3.50099e-06
0.38667
3.65286e-06
0.388422
3.81976e-06
0.389385
3.99697e-06
0.389618
4.17613e-06
0.38958
4.39798e-06
0.389087
4.50735e-06
0.388385
4.62432e-06
0.387403
4.67324e-06
0.386242
4.66672e-06
0.385071
4.65696e-06
0.383968
4.66863e-06
0.38295
4.71872e-06
0.382003
4.73728e-06
0.381109
4.73496e-06
0.380254
4.70881e-06
0.37943
4.67804e-06
0.378628
4.65417e-06
0.377845
4.61388e-06
0.377077
4.61274e-06
0.376323
4.54684e-06
0.375582
4.57474e-06
0.374853
4.4854e-06
0.374137
4.51799e-06
0.373433
4.44057e-06
0.372742
4.42379e-06
0.372064
4.44743e-06
0.371398
4.28549e-06
0.370745
4.48676e-06
0.370105
4.11386e-06
0.369476
4.51915e-06
0.368859
3.95184e-06
0.368251
4.51961e-06
0.367653
3.78416e-06
0.367061
4.53575e-06
0.366475
3.59182e-06
0.365897
4.46593e-06
0.365327
3.69881e-06
0.364768
3.81949e-06
0.364218
4.31247e-06
0.363676
3.25189e-06
0.363141
3.87835e-06
0.362613
4.01401e-06
0.362091
3.06029e-06
0.361575
3.61278e-06
0.361064
3.53398e-06
0.36056
3.36909e-06
0.360061
2.6904e-06
0.35957
3.2911e-06
0.359086
3.17407e-06
0.358608
2.57946e-06
0.358136
2.36772e-06
0.357668
2.44877e-06
0.357205
2.52517e-06
0.356746
2.03556e-06
0.356292
1.60513e-06
0.355845
1.34793e-06
0.355407
1.09827e-06
0.354977
6.34948e-07
0.354555
1.49735e-07
0.354133
-1.98573e-07
0.353694
-5.72244e-07
0.35323
-1.30375e-06
0.352766
-2.58333e-06
0.352343
-4.04346e-06
0.351953
-5.05543e-06
0.35193
-5.93252e-06
0.352538
-6.40977e-06
0.354575
-7.3283e-06
0.359462
-8.43884e-06
0.369502
-9.82797e-06
0.388082
-1.13179e-05
0.419676
-1.27363e-05
0.469205
-1.42305e-05
0.53953
-1.57219e-05
0.626089
-1.71473e-05
0.711968
-1.8326e-05
0.773783
-1.79498e-05
0.805627
-1.6343e-05
0.811768
-1.38323e-05
0.811921
-1.33969e-05
0.8101
-1.26138e-05
0.807879
-1.15792e-05
0.805458
-1.06061e-05
0.803093
-9.63951e-06
0.800987
-8.84516e-06
0.79906
-8.23976e-06
0.797348
-7.72584e-06
0.795847
-7.31746e-06
0.79446
-6.99713e-06
0.793085
-6.73281e-06
0.791667
-6.50029e-06
0.7902
-6.28954e-06
0.78871
-6.09879e-06
0.787222
-5.92776e-06
0.785756
-5.77695e-06
0.784323
-5.64661e-06
0.782925
-5.53558e-06
0.781564
-5.44228e-06
0.780241
-5.36505e-06
0.778953
-5.30154e-06
0.777698
-5.24975e-06
0.776471
-5.2079e-06
0.775255
-5.17409e-06
0.773993
-5.14586e-06
0.772493
-5.12211e-06
0.770212
-5.10005e-06
0.765623
-5.06941e-06
0.754268
-5.00695e-06
0.723206
-4.851e-06
0.637743
-4.43763e-06
0.434108
-3.42867e-06
0.145452
-1.70169e-06
0.0119995
-3.48088e-07
-1.84123e-08
7.14988e-10
0.00010042
4.74384e-10
0.000100423
3.89052e-10
0.000100426
2.97481e-10
0.000100428
1.23695e-10
0.000100429
6.17209e-11
0.000100431
3.81265e-08
0.000100433
4.32039e-06
0.000100434
0.000100432
0.000100432
0.000766239
0.000100405
0.00291777
0.000100266
0.00738106
9.9862e-05
0.0145861
9.89909e-05
0.0245533
9.7441e-05
0.0369479
9.50327e-05
0.0511894
9.16647e-05
0.066597
8.73393e-05
0.0825228
8.21674e-05
0.0984395
7.634e-05
0.113975
7.00868e-05
0.128907
6.36487e-05
0.14313
5.72413e-05
0.156622
5.1032e-05
0.169407
4.51444e-05
0.18154
3.96618e-05
0.193082
3.46346e-05
0.204094
3.00825e-05
0.214635
2.6004e-05
0.224757
2.23842e-05
0.234504
1.92011e-05
0.243913
1.64298e-05
0.253015
1.40346e-05
0.261838
1.19834e-05
0.270403
1.02436e-05
0.278728
8.77934e-06
0.286827
7.55635e-06
0.294711
6.54732e-06
0.30239
5.72558e-06
0.309868
5.06129e-06
0.317149
4.53148e-06
0.324234
4.11779e-06
0.33112
3.79831e-06
0.3378
3.56126e-06
0.344264
3.39273e-06
0.350495
3.27687e-06
0.356467