/*--------------------------------*- C++ -*----------------------------------*\
  =========                 |
  \\      /  F ield         | OpenFOAM: The Open Source CFD Toolbox
   \\    /   O peration     | Website:  https://openfoam.org
    \\  /    A nd           | Version:  13
     \\/     M anipulation  |
\*---------------------------------------------------------------------------*/
FoamFile
{
    format      ascii;
    class       volScalarField;
    location    "0.0013";
    object      Qdot;
}
// * * * * * * * * * * * * * * * * * * * * * * * * * * * * * * * * * * * * * //

dimensions      [1 -1 -3 0 0 0 0];

internalField   nonuniform List<scalar> 
33334
(
2.30074e+10
2.30074e+10
2.30074e+10
2.30074e+10
2.30074e+10
2.30074e+10
2.30074e+10
2.30073e+10
2.30056e+10
2.2985e+10
2.28856e+10
2.26072e+10
2.20451e+10
2.11209e+10
1.98067e+10
1.81387e+10
1.62118e+10
1.41565e+10
1.21075e+10
1.01769e+10
8.43982e+09
6.93251e+09
5.66011e+09
4.60723e+09
3.74781e+09
3.0523e+09
2.49204e+09
2.04148e+09
1.67896e+09
1.38668e+09
1.1503e+09
9.5839e+08
8.01932e+08
6.73806e+08
5.68407e+08
4.81311e+08
4.09025e+08
3.48775e+08
2.98354e+08
2.55998e+08
2.20291e+08
1.90092e+08
1.64477e+08
1.42695e+08
1.24137e+08
1.08303e+08
9.47853e+07
8.32489e+07
7.34202e+07
6.50747e+07
5.80272e+07
5.21229e+07
4.72286e+07
4.32232e+07
3.99831e+07
3.73739e+07
3.52268e+07
3.34259e+07
3.18571e+07
3.05133e+07
2.93864e+07
2.83748e+07
2.7421e+07
2.65075e+07
2.56317e+07
2.47944e+07
2.39969e+07
2.32395e+07
2.25214e+07
2.1841e+07
2.11964e+07
2.05853e+07
2.00056e+07
1.94551e+07
1.89316e+07
1.84334e+07
1.79585e+07
1.75054e+07
1.70724e+07
1.66583e+07
1.62619e+07
1.58821e+07
1.55179e+07
1.51685e+07
1.48333e+07
1.45117e+07
1.42031e+07
1.39067e+07
1.36217e+07
1.33471e+07
1.30824e+07
1.2827e+07
1.25807e+07
1.23432e+07
1.21139e+07
1.18927e+07
1.16791e+07
1.14728e+07
1.12734e+07
1.10804e+07
1.08934e+07
1.07123e+07
1.05368e+07
1.03669e+07
1.02023e+07
1.0043e+07
9.88844e+06
9.73791e+06
9.59037e+06
9.44516e+06
9.30275e+06
9.16535e+06
9.03685e+06
8.92059e+06
8.8147e+06
8.70832e+06
8.57989e+06
8.39995e+06
8.05941e+06
7.40203e+06
6.21908e+06
4.42999e+06
2.38068e+06
818946
146640
11213.4
357.726
7.34948
0.24332
0.0298803
0.0129923
0.0104112
0.0100729
0.0100667
0.0101622
0.0103266
0.0104684
0.0104214
0.0103374
0.0101997
0.00998161
0.00978341
0.00959017
0.00946303
0.00936714
0.00923602
0.00915838
0.00907611
0.00898713
0.00886816
0.0087488
0.00863367
0.00855154
0.00845346
0.00836408
0.00830455
0.00821246
0.00808142
0.00785282
0.00727986
0.00595841
0.00334321
0.000648692
1.86013e-05
3.46432e-07
1.17017e-07
2.30074e+10
2.30074e+10
2.30074e+10
2.30074e+10
2.30074e+10
2.30074e+10
2.30074e+10
2.30073e+10
2.30056e+10
2.2985e+10
2.28856e+10
2.26072e+10
2.20451e+10
2.11209e+10
1.98067e+10
1.81387e+10
1.62118e+10
1.41565e+10
1.21074e+10
1.01769e+10
8.43982e+09
6.9325e+09
5.6601e+09
4.60723e+09
3.74781e+09
3.0523e+09
2.49204e+09
2.04148e+09
1.67896e+09
1.38668e+09
1.1503e+09
9.5839e+08
8.01931e+08
6.73806e+08
5.68406e+08
4.81311e+08
4.09024e+08
3.48774e+08
2.98353e+08
2.55997e+08
2.2029e+08
1.90091e+08
1.64476e+08
1.42695e+08
1.24137e+08
1.08303e+08
9.47846e+07
8.32482e+07
7.34196e+07
6.50741e+07
5.80266e+07
5.21222e+07
4.7228e+07
4.32226e+07
3.99825e+07
3.73731e+07
3.52265e+07
3.34254e+07
3.18565e+07
3.05128e+07
2.93859e+07
2.83743e+07
2.74205e+07
2.65071e+07
2.56312e+07
2.47939e+07
2.39965e+07
2.32391e+07
2.2521e+07
2.18406e+07
2.1196e+07
2.05849e+07
2.00052e+07
1.94547e+07
1.89312e+07
1.8433e+07
1.79582e+07
1.7505e+07
1.70721e+07
1.6658e+07
1.62616e+07
1.58817e+07
1.55176e+07
1.51682e+07
1.4833e+07
1.45114e+07
1.42028e+07
1.39064e+07
1.36214e+07
1.33468e+07
1.30821e+07
1.28268e+07
1.25805e+07
1.23429e+07
1.21137e+07
1.18924e+07
1.16788e+07
1.14726e+07
1.12731e+07
1.10802e+07
1.08932e+07
1.07121e+07
1.05366e+07
1.03667e+07
1.02021e+07
1.00428e+07
9.88824e+06
9.73771e+06
9.59018e+06
9.44497e+06
9.30256e+06
9.16517e+06
9.03665e+06
8.92039e+06
8.81448e+06
8.7081e+06
8.57987e+06
8.39982e+06
8.05969e+06
7.4028e+06
6.22044e+06
4.43184e+06
2.38235e+06
819795
146839
11231.2
358.298
7.35928
0.243529
0.0298899
0.012993
0.0104103
0.0100721
0.0100658
0.0101612
0.0103257
0.0104675
0.0104205
0.0103366
0.0101989
0.00998085
0.00978268
0.00958946
0.00946233
0.00936645
0.00923536
0.00915774
0.00907549
0.00898654
0.00886759
0.00874826
0.00863315
0.00855105
0.00845299
0.00836363
0.00830413
0.00821206
0.00808107
0.00785252
0.00727963
0.00595827
0.00334317
0.000648698
1.86019e-05
3.46439e-07
1.17017e-07
2.30074e+10
2.30074e+10
2.30074e+10
2.30074e+10
2.30074e+10
2.30074e+10
2.30074e+10
2.30073e+10
2.30056e+10
2.2985e+10
2.28856e+10
2.26072e+10
2.20451e+10
2.11209e+10
1.98067e+10
1.81387e+10
1.62118e+10
1.41565e+10
1.21074e+10
1.01769e+10
8.43981e+09
6.93249e+09
5.66009e+09
4.60722e+09
3.74781e+09
3.0523e+09
2.49204e+09
2.04148e+09
1.67896e+09
1.38668e+09
1.1503e+09
9.58388e+08
8.0193e+08
6.73804e+08
5.68405e+08
4.81309e+08
4.09023e+08
3.48773e+08
2.98352e+08
2.55996e+08
2.2029e+08
1.9009e+08
1.64475e+08
1.42694e+08
1.24136e+08
1.08302e+08
9.47839e+07
8.32475e+07
7.34188e+07
6.50734e+07
5.80259e+07
5.21216e+07
4.72273e+07
4.32219e+07
3.99818e+07
3.73724e+07
3.5226e+07
3.34247e+07
3.18558e+07
3.05121e+07
2.93853e+07
2.83737e+07
2.74199e+07
2.65064e+07
2.56306e+07
2.47933e+07
2.39959e+07
2.32385e+07
2.25204e+07
2.184e+07
2.11954e+07
2.05843e+07
2.00046e+07
1.94541e+07
1.89307e+07
1.84324e+07
1.79576e+07
1.75045e+07
1.70716e+07
1.66575e+07
1.6261e+07
1.58812e+07
1.55171e+07
1.51677e+07
1.48325e+07
1.45109e+07
1.42023e+07
1.39059e+07
1.36209e+07
1.33464e+07
1.30816e+07
1.28263e+07
1.258e+07
1.23425e+07
1.21133e+07
1.1892e+07
1.16784e+07
1.14721e+07
1.12727e+07
1.10797e+07
1.08928e+07
1.07117e+07
1.05362e+07
1.03663e+07
1.02017e+07
1.00424e+07
9.88784e+06
9.73733e+06
9.58981e+06
9.4446e+06
9.30218e+06
9.1648e+06
9.03631e+06
8.92002e+06
8.81407e+06
8.70769e+06
8.57961e+06
8.39963e+06
8.05982e+06
7.40354e+06
6.22216e+06
4.43428e+06
2.38458e+06
820977
147146
11261.8
359.401
7.3793
0.243949
0.029913
0.0129946
0.0104093
0.0100709
0.0100644
0.0101598
0.0103243
0.0104662
0.0104193
0.0103354
0.0101978
0.00997981
0.00978168
0.0095885
0.0094614
0.00936556
0.00923449
0.00915691
0.0090747
0.0089858
0.00886689
0.0087476
0.00863254
0.00855048
0.00845247
0.00836315
0.00830369
0.00821168
0.00808074
0.00785226
0.00727944
0.00595817
0.00334316
0.00064871
1.86025e-05
3.46445e-07
1.17017e-07
2.30074e+10
2.30074e+10
2.30074e+10
2.30074e+10
2.30074e+10
2.30074e+10
2.30074e+10
2.30073e+10
2.30056e+10
2.2985e+10
2.28856e+10
2.26072e+10
2.20451e+10
2.11209e+10
1.98067e+10
1.81387e+10
1.62118e+10
1.41564e+10
1.21074e+10
1.01769e+10
8.43979e+09
6.93248e+09
5.66008e+09
4.60721e+09
3.7478e+09
3.05229e+09
2.49203e+09
2.04147e+09
1.67896e+09
1.38668e+09
1.15029e+09
9.58386e+08
8.01929e+08
6.73803e+08
5.68404e+08
4.81309e+08
4.09022e+08
3.48772e+08
2.98352e+08
2.55996e+08
2.20289e+08
1.9009e+08
1.64475e+08
1.42693e+08
1.24135e+08
1.08302e+08
9.47835e+07
8.32471e+07
7.34185e+07
6.5073e+07
5.80255e+07
5.21212e+07
4.72269e+07
4.32215e+07
3.99815e+07
3.7372e+07
3.52256e+07
3.34244e+07
3.18554e+07
3.05117e+07
2.93849e+07
2.83733e+07
2.74195e+07
2.65061e+07
2.56302e+07
2.47929e+07
2.39955e+07
2.32381e+07
2.252e+07
2.18396e+07
2.1195e+07
2.05839e+07
2.00042e+07
1.94537e+07
1.89303e+07
1.8432e+07
1.79572e+07
1.75041e+07
1.70712e+07
1.66571e+07
1.62606e+07
1.58808e+07
1.55167e+07
1.51673e+07
1.48321e+07
1.45105e+07
1.42019e+07
1.39055e+07
1.36205e+07
1.3346e+07
1.30812e+07
1.28259e+07
1.25796e+07
1.23421e+07
1.21129e+07
1.18916e+07
1.1678e+07
1.14717e+07
1.12723e+07
1.10794e+07
1.08924e+07
1.07113e+07
1.05358e+07
1.03659e+07
1.02014e+07
1.0042e+07
9.88747e+06
9.73696e+06
9.58945e+06
9.44424e+06
9.30183e+06
9.16444e+06
9.03594e+06
8.91966e+06
8.8137e+06
8.70732e+06
8.5793e+06
8.39944e+06
8.05989e+06
7.40411e+06
6.22336e+06
4.43602e+06
2.38628e+06
821958
147411
11289.2
360.393
7.39771
0.244334
0.0299338
0.0129963
0.0104086
0.0100699
0.0100634
0.0101588
0.0103232
0.0104652
0.0104184
0.0103345
0.010197
0.00997907
0.009781
0.00958785
0.0094608
0.00936498
0.00923396
0.00915642
0.00907425
0.00898538
0.00886652
0.00874727
0.00863224
0.00855022
0.00845224
0.00836296
0.00830353
0.00821155
0.00808064
0.00785219
0.00727941
0.00595818
0.00334318
0.000648724
1.86032e-05
3.46452e-07
1.17017e-07
2.30074e+10
2.30074e+10
2.30074e+10
2.30074e+10
2.30074e+10
2.30074e+10
2.30074e+10
2.30073e+10
2.30056e+10
2.2985e+10
2.28856e+10
2.26072e+10
2.20451e+10
2.11209e+10
1.98067e+10
1.81387e+10
1.62118e+10
1.41564e+10
1.21074e+10
1.01769e+10
8.43978e+09
6.93247e+09
5.66008e+09
4.60721e+09
3.7478e+09
3.05229e+09
2.49203e+09
2.04147e+09
1.67895e+09
1.38668e+09
1.15029e+09
9.58385e+08
8.01928e+08
6.73802e+08
5.68403e+08
4.81308e+08
4.09022e+08
3.48772e+08
2.98351e+08
2.55995e+08
2.20289e+08
1.90089e+08
1.64474e+08
1.42693e+08
1.24135e+08
1.08301e+08
9.47833e+07
8.32469e+07
7.34183e+07
6.50728e+07
5.80253e+07
5.2121e+07
4.72267e+07
4.32213e+07
3.99813e+07
3.73719e+07
3.52255e+07
3.34243e+07
3.18553e+07
3.05115e+07
2.93847e+07
2.83732e+07
2.74193e+07
2.65059e+07
2.563e+07
2.47928e+07
2.39953e+07
2.32379e+07
2.25198e+07
2.18394e+07
2.11948e+07
2.05837e+07
2.0004e+07
1.94535e+07
1.89301e+07
1.84318e+07
1.7957e+07
1.75039e+07
1.70709e+07
1.66568e+07
1.62604e+07
1.58806e+07
1.55164e+07
1.51671e+07
1.48319e+07
1.45103e+07
1.42017e+07
1.39053e+07
1.36203e+07
1.33458e+07
1.3081e+07
1.28257e+07
1.25794e+07
1.23418e+07
1.21126e+07
1.18914e+07
1.16778e+07
1.14715e+07
1.12721e+07
1.10791e+07
1.08922e+07
1.07111e+07
1.05356e+07
1.03656e+07
1.02011e+07
1.00418e+07
9.88723e+06
9.73672e+06
9.58921e+06
9.44401e+06
9.3016e+06
9.1642e+06
9.03568e+06
8.91941e+06
8.81346e+06
8.70707e+06
8.57907e+06
8.39928e+06
8.05985e+06
7.40429e+06
6.22384e+06
4.43681e+06
2.38711e+06
822454
147549
11303.9
360.948
7.40827
0.244581
0.0299466
0.0129974
0.0104083
0.0100695
0.010063
0.0101583
0.0103227
0.0104647
0.0104179
0.0103341
0.0101966
0.00997876
0.00978072
0.00958759
0.00946056
0.00936476
0.00923376
0.00915624
0.00907409
0.00898524
0.0088664
0.00874717
0.00863216
0.00855015
0.00845219
0.00836292
0.0083035
0.00821152
0.00808063
0.00785219
0.00727942
0.00595819
0.00334321
0.000648737
1.86038e-05
3.46458e-07
1.17018e-07
2.30074e+10
2.30074e+10
2.30074e+10
2.30074e+10
2.30074e+10
2.30074e+10
2.30074e+10
2.30073e+10
2.30056e+10
2.2985e+10
2.28856e+10
2.26072e+10
2.20451e+10
2.11209e+10
1.98067e+10
1.81387e+10
1.62118e+10
1.41564e+10
1.21074e+10
1.01769e+10
8.43977e+09
6.93246e+09
5.66007e+09
4.6072e+09
3.74779e+09
3.05228e+09
2.49203e+09
2.04147e+09
1.67895e+09
1.38667e+09
1.15029e+09
9.58384e+08
8.01927e+08
6.73802e+08
5.68402e+08
4.81307e+08
4.09021e+08
3.48771e+08
2.98351e+08
2.55995e+08
2.20288e+08
1.90089e+08
1.64474e+08
1.42693e+08
1.24135e+08
1.08301e+08
9.47832e+07
8.32468e+07
7.34182e+07
6.50727e+07
5.80252e+07
5.21209e+07
4.72266e+07
4.32212e+07
3.99812e+07
3.73718e+07
3.52254e+07
3.34243e+07
3.18553e+07
3.05115e+07
2.93847e+07
2.83731e+07
2.74193e+07
2.65059e+07
2.563e+07
2.47927e+07
2.39953e+07
2.32379e+07
2.25198e+07
2.18394e+07
2.11948e+07
2.05837e+07
2.0004e+07
1.94534e+07
1.893e+07
1.84318e+07
1.79569e+07
1.75038e+07
1.70709e+07
1.66568e+07
1.62603e+07
1.58805e+07
1.55164e+07
1.5167e+07
1.48318e+07
1.45102e+07
1.42016e+07
1.39052e+07
1.36202e+07
1.33457e+07
1.30809e+07
1.28256e+07
1.25793e+07
1.23417e+07
1.21125e+07
1.18913e+07
1.16777e+07
1.14714e+07
1.1272e+07
1.1079e+07
1.08921e+07
1.07109e+07
1.05355e+07
1.03655e+07
1.0201e+07
1.00417e+07
9.88712e+06
9.7366e+06
9.58909e+06
9.44389e+06
9.30149e+06
9.16409e+06
9.03557e+06
8.91929e+06
8.81333e+06
8.70695e+06
8.57894e+06
8.39918e+06
8.0598e+06
7.40432e+06
6.22398e+06
4.43706e+06
2.38738e+06
822616
147595
11308.9
361.144
7.41226
0.244682
0.0299524
0.012998
0.0104082
0.0100694
0.0100628
0.0101581
0.0103226
0.0104646
0.0104178
0.010334
0.0101965
0.00997867
0.00978065
0.00958753
0.0094605
0.00936471
0.00923372
0.0091562
0.00907406
0.00898522
0.00886638
0.00874716
0.00863215
0.00855014
0.00845218
0.00836291
0.0083035
0.00821153
0.00808063
0.0078522
0.00727943
0.00595821
0.00334324
0.00064875
1.86044e-05
3.46464e-07
1.17018e-07
2.30074e+10
2.30074e+10
2.30074e+10
2.30074e+10
2.30074e+10
2.30074e+10
2.30074e+10
2.30073e+10
2.30056e+10
2.2985e+10
2.28856e+10
2.26072e+10
2.20451e+10
2.11208e+10
1.98067e+10
1.81387e+10
1.62117e+10
1.41564e+10
1.21074e+10
1.01768e+10
8.43976e+09
6.93245e+09
5.66006e+09
4.60719e+09
3.74778e+09
3.05228e+09
2.49202e+09
2.04147e+09
1.67895e+09
1.38667e+09
1.15029e+09
9.58383e+08
8.01926e+08
6.73801e+08
5.68402e+08
4.81307e+08
4.09021e+08
3.48771e+08
2.98351e+08
2.55995e+08
2.20288e+08
1.90089e+08
1.64474e+08
1.42693e+08
1.24135e+08
1.08301e+08
9.47831e+07
8.32467e+07
7.34181e+07
6.50727e+07
5.80252e+07
5.21208e+07
4.72266e+07
4.32212e+07
3.99811e+07
3.73718e+07
3.52254e+07
3.34242e+07
3.18553e+07
3.05115e+07
2.93847e+07
2.83731e+07
2.74193e+07
2.65059e+07
2.563e+07
2.47927e+07
2.39953e+07
2.32379e+07
2.25198e+07
2.18394e+07
2.11948e+07
2.05837e+07
2.0004e+07
1.94534e+07
1.893e+07
1.84318e+07
1.79569e+07
1.75038e+07
1.70709e+07
1.66568e+07
1.62603e+07
1.58805e+07
1.55164e+07
1.5167e+07
1.48318e+07
1.45102e+07
1.42016e+07
1.39052e+07
1.36202e+07
1.33456e+07
1.30809e+07
1.28256e+07
1.25793e+07
1.23417e+07
1.21125e+07
1.18913e+07
1.16777e+07
1.14714e+07
1.1272e+07
1.1079e+07
1.08921e+07
1.07109e+07
1.05354e+07
1.03655e+07
1.0201e+07
1.00416e+07
9.88708e+06
9.73657e+06
9.58905e+06
9.44385e+06
9.30144e+06
9.16405e+06
9.03553e+06
8.91924e+06
8.81329e+06
8.70691e+06
8.57889e+06
8.39913e+06
8.05976e+06
7.4043e+06
6.224e+06
4.43711e+06
2.38743e+06
822646
147604
11309.8
361.186
7.41331
0.244691
0.0299547
0.0129983
0.0104082
0.0100694
0.0100628
0.0101581
0.0103225
0.0104646
0.0104178
0.010334
0.0101965
0.00997867
0.00978064
0.00958753
0.0094605
0.00936471
0.00923371
0.0091562
0.00907406
0.00898522
0.00886639
0.00874716
0.00863216
0.00855015
0.00845219
0.00836292
0.0083035
0.00821153
0.00808063
0.0078522
0.00727943
0.00595823
0.00334326
0.000648762
1.8605e-05
3.46471e-07
1.17018e-07
2.30073e+10
2.30073e+10
2.30073e+10
2.30073e+10
2.30073e+10
2.30073e+10
2.30073e+10
2.30073e+10
2.30055e+10
2.2985e+10
2.28856e+10
2.26072e+10
2.2045e+10
2.11208e+10
1.98066e+10
1.81386e+10
1.62117e+10
1.41564e+10
1.21073e+10
1.01768e+10
8.43973e+09
6.93243e+09
5.66004e+09
4.60718e+09
3.74778e+09
3.05227e+09
2.49202e+09
2.04146e+09
1.67895e+09
1.38667e+09
1.15029e+09
9.58381e+08
8.01925e+08
6.738e+08
5.68401e+08
4.81306e+08
4.0902e+08
3.48771e+08
2.9835e+08
2.55995e+08
2.20288e+08
1.90089e+08
1.64474e+08
1.42693e+08
1.24135e+08
1.08301e+08
9.4783e+07
8.32466e+07
7.3418e+07
6.50726e+07
5.80251e+07
5.21208e+07
4.72265e+07
4.32211e+07
3.99811e+07
3.73717e+07
3.52253e+07
3.34242e+07
3.18553e+07
3.05115e+07
2.93847e+07
2.83731e+07
2.74193e+07
2.65059e+07
2.563e+07
2.47928e+07
2.39953e+07
2.32379e+07
2.25198e+07
2.18394e+07
2.11948e+07
2.05837e+07
2.0004e+07
1.94534e+07
1.893e+07
1.84318e+07
1.79569e+07
1.75038e+07
1.70709e+07
1.66568e+07
1.62603e+07
1.58805e+07
1.55164e+07
1.5167e+07
1.48318e+07
1.45102e+07
1.42016e+07
1.39052e+07
1.36202e+07
1.33456e+07
1.30809e+07
1.28255e+07
1.25793e+07
1.23417e+07
1.21125e+07
1.18913e+07
1.16777e+07
1.14714e+07
1.1272e+07
1.1079e+07
1.0892e+07
1.07109e+07
1.05354e+07
1.03655e+07
1.0201e+07
1.00416e+07
9.88707e+06
9.73656e+06
9.58904e+06
9.44384e+06
9.30143e+06
9.16404e+06
9.03552e+06
8.91924e+06
8.81328e+06
8.7069e+06
8.57888e+06
8.39911e+06
8.05973e+06
7.40427e+06
6.22398e+06
4.43709e+06
2.38742e+06
822638
147602
11309.8
361.19
7.41355
0.244701
0.0299558
0.0129985
0.0104083
0.0100694
0.0100628
0.0101581
0.0103225
0.0104646
0.0104178
0.010334
0.0101965
0.00997868
0.00978065
0.00958753
0.0094605
0.00936472
0.00923372
0.00915621
0.00907407
0.00898523
0.00886639
0.00874717
0.00863217
0.00855016
0.0084522
0.00836292
0.00830351
0.00821154
0.00808064
0.00785221
0.00727944
0.00595824
0.00334328
0.000648775
1.86055e-05
3.46476e-07
1.17018e-07
2.30056e+10
2.30056e+10
2.30056e+10
2.30056e+10
2.30056e+10
2.30056e+10
2.30056e+10
2.30055e+10
2.30037e+10
2.29832e+10
2.28838e+10
2.26054e+10
2.20433e+10
2.11192e+10
1.98051e+10
1.81373e+10
1.62105e+10
1.41554e+10
1.21066e+10
1.01762e+10
8.43927e+09
6.93208e+09
5.65979e+09
4.60699e+09
3.74764e+09
3.05217e+09
2.49195e+09
2.04141e+09
1.67891e+09
1.38664e+09
1.15027e+09
9.58369e+08
8.01916e+08
6.73794e+08
5.68396e+08
4.81303e+08
4.09018e+08
3.48769e+08
2.98349e+08
2.55994e+08
2.20287e+08
1.90088e+08
1.64473e+08
1.42693e+08
1.24135e+08
1.08301e+08
9.47828e+07
8.32465e+07
7.34179e+07
6.50725e+07
5.8025e+07
5.21207e+07
4.72264e+07
4.3221e+07
3.9981e+07
3.73717e+07
3.52253e+07
3.34242e+07
3.18553e+07
3.05115e+07
2.93847e+07
2.83731e+07
2.74193e+07
2.65059e+07
2.563e+07
2.47928e+07
2.39953e+07
2.32379e+07
2.25198e+07
2.18394e+07
2.11948e+07
2.05837e+07
2.0004e+07
1.94534e+07
1.893e+07
1.84318e+07
1.79569e+07
1.75038e+07
1.70709e+07
1.66568e+07
1.62603e+07
1.58805e+07
1.55164e+07
1.5167e+07
1.48318e+07
1.45102e+07
1.42016e+07
1.39052e+07
1.36202e+07
1.33456e+07
1.30809e+07
1.28255e+07
1.25793e+07
1.23417e+07
1.21125e+07
1.18913e+07
1.16777e+07
1.14714e+07
1.1272e+07
1.1079e+07
1.0892e+07
1.07109e+07
1.05354e+07
1.03655e+07
1.0201e+07
1.00416e+07
9.88707e+06
9.73656e+06
9.58905e+06
9.44385e+06
9.30144e+06
9.16404e+06
9.03552e+06
8.91924e+06
8.81329e+06
8.7069e+06
8.57888e+06
8.3991e+06
8.05972e+06
7.40424e+06
6.22392e+06
4.43702e+06
2.38736e+06
822609
147596
11309.3
361.181
7.41352
0.244727
0.0299313
0.0129986
0.0104083
0.0100694
0.0100628
0.0101581
0.0103226
0.0104646
0.0104178
0.010334
0.0101965
0.0099787
0.00978067
0.00958755
0.00946052
0.00936473
0.00923373
0.00915622
0.00907408
0.00898524
0.0088664
0.00874718
0.00863217
0.00855016
0.0084522
0.00836293
0.00830351
0.00821154
0.00808064
0.00785221
0.00727945
0.00595826
0.00334331
0.000648786
1.86061e-05
3.46482e-07
1.17018e-07
2.2985e+10
2.2985e+10
2.2985e+10
2.2985e+10
2.2985e+10
2.2985e+10
2.2985e+10
2.2985e+10
2.29832e+10
2.29627e+10
2.28634e+10
2.25853e+10
2.20238e+10
2.11007e+10
1.9788e+10
1.8122e+10
1.61973e+10
1.41443e+10
1.20976e+10
1.01691e+10
8.43376e+09
6.92789e+09
5.65663e+09
4.60464e+09
3.7459e+09
3.05089e+09
2.491e+09
2.04071e+09
1.6784e+09
1.38627e+09
1.14999e+09
9.58165e+08
8.01766e+08
6.73684e+08
5.68316e+08
4.81244e+08
4.08975e+08
3.48738e+08
2.98326e+08
2.55977e+08
2.20275e+08
1.9008e+08
1.64467e+08
1.42688e+08
1.24132e+08
1.08299e+08
9.47812e+07
8.32453e+07
7.34171e+07
6.50719e+07
5.80246e+07
5.21204e+07
4.72262e+07
4.32208e+07
3.99809e+07
3.73715e+07
3.52252e+07
3.34241e+07
3.18552e+07
3.05115e+07
2.93847e+07
2.83731e+07
2.74193e+07
2.65059e+07
2.563e+07
2.47927e+07
2.39953e+07
2.32379e+07
2.25198e+07
2.18394e+07
2.11948e+07
2.05837e+07
2.0004e+07
1.94534e+07
1.893e+07
1.84318e+07
1.79569e+07
1.75038e+07
1.70709e+07
1.66568e+07
1.62603e+07
1.58805e+07
1.55164e+07
1.5167e+07
1.48318e+07
1.45102e+07
1.42016e+07
1.39052e+07
1.36202e+07
1.33456e+07
1.30809e+07
1.28256e+07
1.25793e+07
1.23417e+07
1.21125e+07
1.18913e+07
1.16777e+07
1.14714e+07
1.1272e+07
1.1079e+07
1.0892e+07
1.07109e+07
1.05354e+07
1.03655e+07
1.0201e+07
1.00416e+07
9.88708e+06
9.73656e+06
9.58905e+06
9.44385e+06
9.30144e+06
9.16404e+06
9.03552e+06
8.91924e+06
8.81329e+06
8.70691e+06
8.57889e+06
8.3991e+06
8.05971e+06
7.4042e+06
6.22386e+06
4.43693e+06
2.38728e+06
822566
147585
11308.4
361.158
7.41326
0.244726
0.0299315
0.0129987
0.0104084
0.0100694
0.0100629
0.0101582
0.0103226
0.0104647
0.0104179
0.010334
0.0101966
0.00997873
0.00978069
0.00958757
0.00946054
0.00936475
0.00923375
0.00915623
0.00907409
0.00898525
0.00886641
0.00874718
0.00863218
0.00855017
0.00845221
0.00836294
0.00830352
0.00821155
0.00808065
0.00785222
0.00727946
0.00595827
0.00334333
0.000648798
1.86066e-05
3.46488e-07
1.17018e-07
2.28856e+10
2.28856e+10
2.28856e+10
2.28856e+10
2.28856e+10
2.28856e+10
2.28856e+10
2.28856e+10
2.28838e+10
2.28634e+10
2.27646e+10
2.24879e+10
2.19294e+10
2.10111e+10
1.97054e+10
1.8048e+10
1.61332e+10
1.40904e+10
1.20536e+10
1.0134e+10
8.40633e+09
6.90674e+09
5.64049e+09
4.59239e+09
3.73663e+09
3.04388e+09
2.4857e+09
2.0367e+09
1.67535e+09
1.38395e+09
1.14823e+09
9.56818e+08
8.00736e+08
6.72895e+08
5.67712e+08
4.80781e+08
4.0862e+08
3.48465e+08
2.98118e+08
2.55818e+08
2.20154e+08
1.89987e+08
1.64397e+08
1.42635e+08
1.24091e+08
1.08268e+08
9.47582e+07
8.3228e+07
7.34041e+07
6.50622e+07
5.80173e+07
5.21149e+07
4.72221e+07
4.32177e+07
3.99785e+07
3.73697e+07
3.52239e+07
3.34231e+07
3.18544e+07
3.05109e+07
2.93843e+07
2.83728e+07
2.7419e+07
2.65057e+07
2.56299e+07
2.47926e+07
2.39952e+07
2.32378e+07
2.25198e+07
2.18394e+07
2.11947e+07
2.05837e+07
2.0004e+07
1.94534e+07
1.893e+07
1.84318e+07
1.79569e+07
1.75038e+07
1.70709e+07
1.66568e+07
1.62603e+07
1.58805e+07
1.55164e+07
1.5167e+07
1.48318e+07
1.45102e+07
1.42016e+07
1.39052e+07
1.36202e+07
1.33456e+07
1.30809e+07
1.28256e+07
1.25793e+07
1.23417e+07
1.21125e+07
1.18913e+07
1.16777e+07
1.14714e+07
1.1272e+07
1.1079e+07
1.0892e+07
1.07109e+07
1.05354e+07
1.03655e+07
1.0201e+07
1.00416e+07
9.88708e+06
9.73656e+06
9.58905e+06
9.44385e+06
9.30144e+06
9.16405e+06
9.03553e+06
8.91925e+06
8.8133e+06
8.70691e+06
8.5789e+06
8.39911e+06
8.0597e+06
7.40418e+06
6.2238e+06
4.43684e+06
2.3872e+06
822523
147575
11307.5
361.129
7.41286
0.244698
0.0299315
0.0129988
0.0104084
0.0100695
0.0100629
0.0101582
0.0103226
0.0104647
0.0104179
0.0103341
0.0101966
0.00997876
0.00978072
0.0095876
0.00946056
0.00936477
0.00923376
0.00915625
0.0090741
0.00898526
0.00886642
0.00874719
0.00863219
0.00855018
0.00845222
0.00836295
0.00830353
0.00821155
0.00808066
0.00785223
0.00727947
0.00595829
0.00334335
0.00064881
1.86072e-05
3.46493e-07
1.17019e-07
2.26072e+10
2.26072e+10
2.26072e+10
2.26072e+10
2.26072e+10
2.26072e+10
2.26072e+10
2.26072e+10
2.26054e+10
2.25853e+10
2.24879e+10
2.22153e+10
2.1665e+10
2.07604e+10
1.9474e+10
1.78409e+10
1.59536e+10
1.39394e+10
1.193e+10
1.00352e+10
8.32875e+09
6.84661e+09
5.59425e+09
4.55699e+09
3.70956e+09
3.02316e+09
2.4698e+09
2.02446e+09
1.66589e+09
1.3766e+09
1.1425e+09
9.52337e+08
7.97218e+08
6.70125e+08
5.65524e+08
4.7905e+08
4.07247e+08
3.47375e+08
2.97251e+08
2.55128e+08
2.19605e+08
1.8955e+08
1.64049e+08
1.42358e+08
1.23871e+08
1.08094e+08
9.46197e+07
8.31181e+07
7.33169e+07
6.49929e+07
5.79622e+07
5.20709e+07
4.71869e+07
4.31894e+07
3.99555e+07
3.73509e+07
3.52091e+07
3.34108e+07
3.1844e+07
3.05027e+07
2.93775e+07
2.83672e+07
2.74145e+07
2.6502e+07
2.5627e+07
2.47903e+07
2.39934e+07
2.32364e+07
2.25186e+07
2.18385e+07
2.1194e+07
2.05831e+07
2.00036e+07
1.94531e+07
1.89298e+07
1.84316e+07
1.79568e+07
1.75037e+07
1.70708e+07
1.66567e+07
1.62603e+07
1.58805e+07
1.55163e+07
1.5167e+07
1.48318e+07
1.45102e+07
1.42015e+07
1.39052e+07
1.36202e+07
1.33456e+07
1.30809e+07
1.28255e+07
1.25793e+07
1.23417e+07
1.21125e+07
1.18913e+07
1.16777e+07
1.14714e+07
1.1272e+07
1.1079e+07
1.0892e+07
1.07109e+07
1.05354e+07
1.03655e+07
1.0201e+07
1.00416e+07
9.88708e+06
9.73657e+06
9.58905e+06
9.44386e+06
9.30145e+06
9.16405e+06
9.03554e+06
8.91926e+06
8.81331e+06
8.70693e+06
8.57891e+06
8.39912e+06
8.05971e+06
7.40417e+06
6.22376e+06
4.43679e+06
2.38714e+06
822491
147567
11306.7
361.104
7.4125
0.244692
0.0299314
0.0129988
0.0104085
0.0100695
0.0100629
0.0101582
0.0103227
0.0104647
0.0104179
0.0103341
0.0101966
0.00997878
0.00978074
0.00958762
0.00946058
0.00936478
0.00923378
0.00915626
0.00907412
0.00898527
0.00886643
0.0087472
0.0086322
0.00855019
0.00845223
0.00836296
0.00830353
0.00821156
0.00808066
0.00785223
0.00727948
0.00595831
0.00334338
0.000648821
1.86077e-05
3.46498e-07
1.17019e-07
2.20451e+10
2.20451e+10
2.20451e+10
2.20451e+10
2.20451e+10
2.20451e+10
2.20451e+10
2.2045e+10
2.20433e+10
2.20238e+10
2.19294e+10
2.1665e+10
2.11315e+10
2.02545e+10
1.90073e+10
1.74233e+10
1.55916e+10
1.3635e+10
1.1681e+10
9.83607e+09
8.17225e+09
6.7251e+09
5.5006e+09
4.48505e+09
3.6543e+09
2.98062e+09
2.43693e+09
1.99894e+09
1.64597e+09
1.36098e+09
1.13017e+09
9.42565e+08
7.89434e+08
6.63897e+08
5.60522e+08
4.75017e+08
4.03986e+08
3.44731e+08
2.95101e+08
2.53377e+08
2.18176e+08
1.88383e+08
1.63094e+08
1.41576e+08
1.2323e+08
1.07567e+08
9.4187e+07
8.27622e+07
7.30236e+07
6.47506e+07
5.77614e+07
5.19037e+07
4.70469e+07
4.30713e+07
3.98551e+07
3.72647e+07
3.51369e+07
3.33479e+07
3.17884e+07
3.04556e+07
2.93363e+07
2.83314e+07
2.73836e+07
2.64754e+07
2.56041e+07
2.47708e+07
2.39768e+07
2.32223e+07
2.25067e+07
2.18285e+07
2.11857e+07
2.05762e+07
1.99977e+07
1.94483e+07
1.89258e+07
1.84283e+07
1.79541e+07
1.75015e+07
1.70691e+07
1.66553e+07
1.62592e+07
1.58796e+07
1.55156e+07
1.51664e+07
1.48314e+07
1.45098e+07
1.42013e+07
1.3905e+07
1.362e+07
1.33455e+07
1.30808e+07
1.28255e+07
1.25792e+07
1.23417e+07
1.21125e+07
1.18912e+07
1.16776e+07
1.14714e+07
1.1272e+07
1.1079e+07
1.0892e+07
1.07109e+07
1.05354e+07
1.03655e+07
1.0201e+07
1.00416e+07
9.88708e+06
9.73657e+06
9.58905e+06
9.44386e+06
9.30145e+06
9.16405e+06
9.03554e+06
8.91926e+06
8.81332e+06
8.70693e+06
8.57892e+06
8.39913e+06
8.05971e+06
7.40417e+06
6.22374e+06
4.43675e+06
2.3871e+06
822469
147561
11306.1
361.085
7.4122
0.244686
0.0299313
0.0129988
0.0104085
0.0100695
0.010063
0.0101582
0.0103227
0.0104647
0.0104179
0.0103341
0.0101966
0.00997881
0.00978077
0.00958764
0.0094606
0.0093648
0.00923379
0.00915627
0.00907413
0.00898529
0.00886644
0.00874722
0.00863221
0.0085502
0.00845224
0.00836297
0.00830354
0.00821157
0.00808067
0.00785224
0.00727949
0.00595832
0.0033434
0.000648832
1.86082e-05
3.46504e-07
1.17019e-07
2.11209e+10
2.11209e+10
2.11209e+10
2.11209e+10
2.11209e+10
2.11209e+10
2.11208e+10
2.11208e+10
2.11192e+10
2.11007e+10
2.10111e+10
2.07604e+10
2.02545e+10
1.94231e+10
1.82403e+10
1.67371e+10
1.49969e+10
1.3135e+10
1.12719e+10
9.50891e+09
7.91511e+09
6.52541e+09
5.3466e+09
4.36662e+09
3.56318e+09
2.91032e+09
2.38244e+09
1.95648e+09
1.61269e+09
1.33472e+09
1.10934e+09
9.25933e+08
7.76082e+08
6.53122e+08
5.51785e+08
4.67901e+08
3.98168e+08
3.39956e+08
2.9117e+08
2.50132e+08
2.15489e+08
1.86153e+08
1.6124e+08
1.40031e+08
1.2194e+08
1.06488e+08
9.32826e+07
8.20022e+07
7.23832e+07
6.4209e+07
5.73012e+07
5.15106e+07
4.67086e+07
4.27765e+07
3.9598e+07
3.70378e+07
3.49385e+07
3.31699e+07
3.16261e+07
3.03126e+07
2.92066e+07
2.82143e+07
2.72783e+07
2.6381e+07
2.55195e+07
2.46952e+07
2.39093e+07
2.31622e+07
2.24533e+07
2.17812e+07
2.11438e+07
2.05392e+07
1.99652e+07
1.94197e+07
1.89007e+07
1.84065e+07
1.79351e+07
1.7485e+07
1.70548e+07
1.6643e+07
1.62486e+07
1.58705e+07
1.55079e+07
1.51599e+07
1.48258e+07
1.45052e+07
1.41974e+07
1.39017e+07
1.36173e+07
1.33433e+07
1.3079e+07
1.2824e+07
1.2578e+07
1.23407e+07
1.21117e+07
1.18906e+07
1.16771e+07
1.1471e+07
1.12716e+07
1.10787e+07
1.08919e+07
1.07108e+07
1.05353e+07
1.03654e+07
1.02009e+07
1.00416e+07
9.88705e+06
9.73654e+06
9.58903e+06
9.44384e+06
9.30144e+06
9.16405e+06
9.03553e+06
8.91926e+06
8.81331e+06
8.70693e+06
8.57892e+06
8.39913e+06
8.05971e+06
7.40416e+06
6.22372e+06
4.43672e+06
2.38707e+06
822454
147557
11305.8
361.073
7.412
0.244683
0.0299562
0.0129988
0.0104085
0.0100696
0.010063
0.0101583
0.0103227
0.0104648
0.010418
0.0103342
0.0101967
0.00997883
0.00978079
0.00958766
0.00946062
0.00936482
0.00923381
0.00915629
0.00907414
0.0089853
0.00886646
0.00874723
0.00863222
0.00855021
0.00845225
0.00836298
0.00830355
0.00821158
0.00808068
0.00785225
0.0072795
0.00595834
0.00334342
0.000648842
1.86086e-05
3.46508e-07
1.17019e-07
1.98067e+10
1.98067e+10
1.98067e+10
1.98067e+10
1.98067e+10
1.98067e+10
1.98067e+10
1.98066e+10
1.98051e+10
1.9788e+10
1.97054e+10
1.9474e+10
1.90073e+10
1.82403e+10
1.71487e+10
1.57599e+10
1.41492e+10
1.24217e+10
1.06878e+10
9.04138e+09
7.54734e+09
6.23956e+09
5.12598e+09
4.19681e+09
3.43241e+09
2.8093e+09
2.30403e+09
1.89525e+09
1.56457e+09
1.29666e+09
1.07903e+09
9.01639e+08
7.56492e+08
6.37235e+08
5.38832e+08
4.57289e+08
3.89433e+08
3.32738e+08
2.85183e+08
2.45147e+08
2.11327e+08
1.82668e+08
1.58313e+08
1.37567e+08
1.19861e+08
1.04729e+08
9.17907e+07
8.07328e+07
7.12993e+07
6.32795e+07
5.65e+07
5.08155e+07
4.61008e+07
4.22403e+07
3.91204e+07
3.66089e+07
3.45539e+07
3.28175e+07
3.13012e+07
3.00183e+07
2.89344e+07
2.79628e+07
2.70467e+07
2.61677e+07
2.53234e+07
2.4515e+07
2.37439e+07
2.30105e+07
2.23143e+07
2.16539e+07
2.10274e+07
2.04328e+07
1.98681e+07
1.93312e+07
1.88202e+07
1.83332e+07
1.78687e+07
1.74249e+07
1.70004e+07
1.65939e+07
1.62044e+07
1.58308e+07
1.54723e+07
1.51281e+07
1.47974e+07
1.44799e+07
1.4175e+07
1.38819e+07
1.35999e+07
1.33279e+07
1.30655e+07
1.28122e+07
1.25678e+07
1.23318e+07
1.2104e+07
1.1884e+07
1.16715e+07
1.14662e+07
1.12676e+07
1.10753e+07
1.0889e+07
1.07083e+07
1.05333e+07
1.03637e+07
1.01995e+07
1.00404e+07
9.8861e+06
9.73577e+06
9.58841e+06
9.44333e+06
9.30102e+06
9.16371e+06
9.03526e+06
8.91904e+06
8.81313e+06
8.70679e+06
8.57881e+06
8.39905e+06
8.05964e+06
7.4041e+06
6.22368e+06
4.43668e+06
2.38705e+06
822442
147554
11305.5
361.065
7.41187
0.24468
0.0299561
0.0129989
0.0104085
0.0100696
0.010063
0.0101583
0.0103227
0.0104648
0.010418
0.0103342
0.0101967
0.00997885
0.00978081
0.00958768
0.00946064
0.00936484
0.00923383
0.00915631
0.00907416
0.00898531
0.00886647
0.00874724
0.00863224
0.00855022
0.00845226
0.00836299
0.00830356
0.00821159
0.00808069
0.00785227
0.00727952
0.00595836
0.00334345
0.000648853
1.86091e-05
3.46513e-07
1.17019e-07
1.81387e+10
1.81387e+10
1.81387e+10
1.81387e+10
1.81387e+10
1.81387e+10
1.81387e+10
1.81386e+10
1.81373e+10
1.8122e+10
1.8048e+10
1.78409e+10
1.74233e+10
1.67371e+10
1.57599e+10
1.45148e+10
1.3067e+10
1.15091e+10
9.93867e+09
8.44024e+09
7.07334e+09
5.87034e+09
4.84046e+09
3.97667e+09
3.2626e+09
2.67792e+09
2.20189e+09
1.81538e+09
1.50169e+09
1.24681e+09
1.03924e+09
8.69669e+08
7.30637e+08
6.16198e+08
5.21619e+08
4.4313e+08
3.77731e+08
3.23022e+08
2.77083e+08
2.3837e+08
2.05637e+08
1.77874e+08
1.54263e+08
1.34135e+08
1.16944e+08
1.02244e+08
8.96658e+07
7.89103e+07
6.97299e+07
6.19219e+07
5.5319e+07
4.9781e+07
4.51873e+07
4.14262e+07
3.83878e+07
3.59429e+07
3.39472e+07
3.22551e+07
3.07796e+07
2.95373e+07
2.84846e+07
2.75417e+07
2.66529e+07
2.57998e+07
2.49797e+07