/*--------------------------------*- C++ -*----------------------------------*\
  =========                 |
  \\      /  F ield         | OpenFOAM: The Open Source CFD Toolbox
   \\    /   O peration     | Website:  https://openfoam.org
    \\  /    A nd           | Version:  13
     \\/     M anipulation  |
\*---------------------------------------------------------------------------*/
FoamFile
{
    format      ascii;
    class       volScalarField;
    location    "0.0013";
    object      rho;
}
// * * * * * * * * * * * * * * * * * * * * * * * * * * * * * * * * * * * * * //

dimensions      [1 -3 0 0 0 0 0];

internalField   nonuniform List<scalar> 
33334
(
1.14453
1.14453
1.14453
1.14453
1.14453
1.14453
1.14453
1.14452
1.1445
1.14428
1.14345
1.14155
1.13831
1.13372
1.12788
1.12104
1.11346
1.10539
1.09702
1.0885
1.07991
1.07129
1.06268
1.05409
1.04551
1.03696
1.02842
1.0199
1.0114
1.00292
0.994444
0.985986
0.977541
0.96911
0.960694
0.952293
0.94391
0.935547
0.927209
0.918899
0.910626
0.9024
0.894232
0.886142
0.878155
0.870303
0.862633
0.855206
0.8481
0.841417
0.835281
0.829832
0.825217
0.821564
0.818938
0.81729
0.816328
0.815968
0.815939
0.816275
0.817018
0.817892
0.81872
0.819452
0.820095
0.820668
0.821191
0.821679
0.822145
0.822596
0.823036
0.823469
0.823896
0.824317
0.824732
0.825142
0.825544
0.82594
0.826328
0.826708
0.827081
0.827446
0.827803
0.828155
0.828502
0.828845
0.829187
0.829528
0.829865
0.830196
0.83052
0.830839
0.831153
0.831464
0.831772
0.832076
0.832378
0.832676
0.832971
0.83326
0.833544
0.833823
0.834098
0.83437
0.834638
0.834901
0.835162
0.835424
0.835692
0.835971
0.836257
0.83653
0.836765
0.836947
0.837078
0.837197
0.837434
0.838236
0.840145
0.844652
0.854431
0.874018
0.910278
0.972635
1.07237
1.21917
1.41179
1.62507
1.80769
1.92119
1.96805
1.97543
1.97521
1.97322
1.97048
1.96742
1.96478
1.96269
1.96095
1.95966
1.95869
1.95781
1.95684
1.95572
1.95447
1.95317
1.95188
1.95063
1.94944
1.94831
1.94722
1.94616
1.94512
1.94409
1.94305
1.94199
1.9408
1.93917
1.9362
1.92926
1.91063
1.8586
1.72245
1.45914
1.216
1.14849
1.14453
1.14453
1.14453
1.14453
1.14453
1.14453
1.14453
1.14452
1.1445
1.14428
1.14345
1.14155
1.13831
1.13372
1.12788
1.12104
1.11346
1.10539
1.09702
1.0885
1.07991
1.07129
1.06268
1.05409
1.04551
1.03696
1.02842
1.0199
1.0114
1.00292
0.994444
0.985985
0.977541
0.96911
0.960694
0.952293
0.94391
0.935547
0.927209
0.918899
0.910627
0.9024
0.894232
0.886143
0.878155
0.870303
0.862634
0.855206
0.8481
0.841418
0.835282
0.829833
0.825218
0.821565
0.818939
0.81729
0.81633
0.815969
0.815939
0.816276
0.817019
0.817893
0.818721
0.819453
0.820096
0.820669
0.821192
0.82168
0.822146
0.822597
0.823037
0.823471
0.823897
0.824318
0.824734
0.825143
0.825546
0.825942
0.82633
0.82671
0.827082
0.827447
0.827805
0.828156
0.828503
0.828847
0.829189
0.829529
0.829866
0.830197
0.830522
0.83084
0.831155
0.831466
0.831773
0.832078
0.832379
0.832678
0.832972
0.833261
0.833545
0.833824
0.8341
0.834372
0.834639
0.834903
0.835164
0.835426
0.835694
0.835973
0.836258
0.836532
0.836767
0.836949
0.837079
0.837199
0.837437
0.838235
0.840145
0.844649
0.854422
0.873999
0.910248
0.972591
1.07231
1.21909
1.41169
1.62498
1.80763
1.92115
1.96804
1.97544
1.97521
1.97323
1.97048
1.96742
1.96478
1.96269
1.96095
1.95966
1.95869
1.95782
1.95684
1.95572
1.95447
1.95317
1.95188
1.95063
1.94944
1.94831
1.94722
1.94617
1.94513
1.94409
1.94305
1.94199
1.9408
1.93917
1.9362
1.92926
1.91063
1.8586
1.72245
1.45914
1.216
1.14849
1.14453
1.14453
1.14453
1.14453
1.14453
1.14453
1.14453
1.14452
1.1445
1.14428
1.14345
1.14155
1.13831
1.13372
1.12788
1.12104
1.11346
1.10539
1.09702
1.0885
1.07991
1.07129
1.06268
1.05409
1.04551
1.03696
1.02842
1.0199
1.0114
1.00292
0.994444
0.985986
0.977541
0.96911
0.960694
0.952293
0.94391
0.935548
0.927209
0.9189
0.910627
0.9024
0.894233
0.886143
0.878155
0.870304
0.862634
0.855206
0.848101
0.841418
0.835282
0.829833
0.825219
0.821566
0.81894
0.817291
0.816331
0.81597
0.81594
0.816277
0.817021
0.817895
0.818722
0.819454
0.820097
0.820671
0.821194
0.821682
0.822148
0.822599
0.823039
0.823472
0.823899
0.82432
0.824735
0.825145
0.825548
0.825944
0.826332
0.826712
0.827084
0.827449
0.827807
0.828158
0.828505
0.828849
0.829191
0.829531
0.829868
0.830199
0.830524
0.830843
0.831157
0.831468
0.831775
0.83208
0.832381
0.83268
0.832974
0.833264
0.833547
0.833826
0.834102
0.834374
0.834642
0.834905
0.835166
0.835428
0.835696
0.835975
0.83626
0.836534
0.83677
0.836951
0.837081
0.837201
0.83744
0.838236
0.840143
0.844641
0.854405
0.873969
0.910193
0.9725
1.07218
1.21893
1.41152
1.62484
1.80754
1.92112
1.96804
1.97544
1.97522
1.97324
1.97049
1.96743
1.96479
1.9627
1.96096
1.95967
1.9587
1.95782
1.95685
1.95572
1.95448
1.95318
1.95188
1.95064
1.94945
1.94831
1.94723
1.94617
1.94513
1.94409
1.94306
1.94199
1.9408
1.93917
1.9362
1.92926
1.91063
1.8586
1.72246
1.45914
1.216
1.14849
1.14453
1.14453
1.14453
1.14453
1.14453
1.14453
1.14453
1.14452
1.1445
1.14428
1.14345
1.14155
1.13831
1.13372
1.12788
1.12104
1.11346
1.10539
1.09702
1.0885
1.07991
1.07129
1.06268
1.05409
1.04551
1.03696
1.02842
1.0199
1.0114
1.00292
0.994444
0.985986
0.977541
0.96911
0.960694
0.952293
0.94391
0.935548
0.927209
0.9189
0.910627
0.9024
0.894233
0.886143
0.878155
0.870304
0.862634
0.855207
0.848101
0.841419
0.835283
0.829834
0.825219
0.821566
0.81894
0.817291
0.816332
0.815971
0.815941
0.816278
0.817021
0.817896
0.818723
0.819455
0.820098
0.820672
0.821195
0.821683
0.822149
0.8226
0.82304
0.823474
0.823901
0.824322
0.824737
0.825146
0.825549
0.825945
0.826333
0.826713
0.827086
0.827451
0.827809
0.82816
0.828507
0.82885
0.829193
0.829533
0.82987
0.830201
0.830526
0.830844
0.831159
0.83147
0.831777
0.832082
0.832383
0.832682
0.832976
0.833266
0.83355
0.833829
0.834104
0.834376
0.834644
0.834907
0.835168
0.83543
0.835699
0.835977
0.836263
0.836536
0.836772
0.836954
0.837084
0.837203
0.837442
0.838237
0.840143
0.844638
0.854395
0.873944
0.910149
0.972429
1.07208
1.21879
1.41137
1.6247
1.80745
1.92108
1.96803
1.97544
1.97522
1.97324
1.9705
1.96744
1.96479
1.9627
1.96096
1.95967
1.9587
1.95782
1.95685
1.95573
1.95448
1.95318
1.95189
1.95064
1.94945
1.94832
1.94723
1.94617
1.94513
1.9441
1.94306
1.94199
1.9408
1.93917
1.93621
1.92926
1.91063
1.8586
1.72246
1.45915
1.216
1.14849
1.14453
1.14453
1.14453
1.14453
1.14453
1.14453
1.14453
1.14452
1.1445
1.14428
1.14345
1.14155
1.13831
1.13372
1.12788
1.12104
1.11346
1.10539
1.09702
1.0885
1.07991
1.07129
1.06268
1.05409
1.04551
1.03696
1.02842
1.0199
1.0114
1.00292
0.994444
0.985986
0.977541
0.96911
0.960694
0.952293
0.94391
0.935548
0.927209
0.9189
0.910627
0.9024
0.894233
0.886143
0.878155
0.870304
0.862634
0.855207
0.848101
0.841419
0.835283
0.829834
0.825219
0.821566
0.81894
0.817292
0.816332
0.815971
0.815941
0.816278
0.817022
0.817896
0.818723
0.819456
0.820099
0.820672
0.821195
0.821684
0.82215
0.8226
0.823041
0.823474
0.823901
0.824322
0.824738
0.825147
0.82555
0.825946
0.826334
0.826714
0.827087
0.827452
0.827809
0.828161
0.828508
0.828851
0.829194
0.829534
0.829871
0.830202
0.830527
0.830846
0.83116
0.831471
0.831779
0.832083
0.832385
0.832683
0.832978
0.833267
0.833551
0.83383
0.834106
0.834378
0.834645
0.834909
0.83517
0.835432
0.8357
0.835979
0.836264
0.836538
0.836774
0.836956
0.837086
0.837205
0.837444
0.838239
0.840144
0.844637
0.85439
0.873933
0.910127
0.972394
1.07202
1.21872
1.41128
1.62463
1.8074
1.92106
1.96803
1.97544
1.97523
1.97324
1.9705
1.96744
1.96479
1.9627
1.96096
1.95967
1.9587
1.95783
1.95685
1.95573
1.95448
1.95318
1.95189
1.95064
1.94945
1.94832
1.94723
1.94617
1.94513
1.9441
1.94306
1.94199
1.9408
1.93917
1.93621
1.92926
1.91063
1.8586
1.72246
1.45915
1.216
1.14849
1.14453
1.14453
1.14453
1.14453
1.14453
1.14453
1.14453
1.14452
1.1445
1.14428
1.14345
1.14155
1.13831
1.13372
1.12788
1.12104
1.11346
1.10539
1.09702
1.0885
1.07991
1.07129
1.06268
1.05409
1.04551
1.03696
1.02842
1.0199
1.0114
1.00292
0.994444
0.985985
0.977541
0.96911
0.960694
0.952293
0.94391
0.935548
0.927209
0.9189
0.910627
0.9024
0.894233
0.886143
0.878155
0.870304
0.862634
0.855207
0.848101
0.841419
0.835282
0.829834
0.825219
0.821566
0.81894
0.817291
0.816332
0.815971
0.815941
0.816278
0.817022
0.817896
0.818724
0.819456
0.820099
0.820672
0.821195
0.821684
0.82215
0.822601
0.823041
0.823474
0.823901
0.824323
0.824738
0.825147
0.82555
0.825946
0.826334
0.826714
0.827087
0.827452
0.82781
0.828161
0.828508
0.828852
0.829194
0.829535
0.829871
0.830203
0.830527
0.830846
0.831161
0.831471
0.831779
0.832084
0.832385
0.832684
0.832978
0.833268
0.833552
0.833831
0.834106
0.834378
0.834646
0.83491
0.83517
0.835432
0.835701
0.83598
0.836265
0.836539
0.836775
0.836957
0.837087
0.837206
0.837445
0.83824
0.840144
0.844636
0.854389
0.87393
0.910121
0.972383
1.07201
1.2187
1.41125
1.6246
1.80738
1.92105
1.96803
1.97544
1.97523
1.97324
1.9705
1.96744
1.9648
1.96271
1.96096
1.95967
1.95871
1.95783
1.95686
1.95573
1.95448
1.95318
1.95189
1.95064
1.94945
1.94832
1.94723
1.94617
1.94513
1.9441
1.94306
1.94199
1.9408
1.93917
1.93621
1.92926
1.91063
1.8586
1.72246
1.45915
1.216
1.14849
1.14453
1.14453
1.14453
1.14453
1.14453
1.14453
1.14453
1.14452
1.1445
1.14428
1.14345
1.14155
1.13831
1.13372
1.12788
1.12104
1.11346
1.10539
1.09702
1.0885
1.07991
1.07129
1.06268
1.05409
1.04551
1.03696
1.02842
1.0199
1.0114
1.00292
0.994443
0.985985
0.977541
0.96911
0.960694
0.952293
0.94391
0.935548
0.927209
0.9189
0.910627
0.9024
0.894233
0.886143
0.878155
0.870304
0.862634
0.855207
0.848101
0.841419
0.835282
0.829833
0.825219
0.821566
0.81894
0.817291
0.816332
0.815971
0.815941
0.816278
0.817022
0.817896
0.818724
0.819456
0.820099
0.820672
0.821195
0.821684
0.82215
0.822601
0.823041
0.823475
0.823902
0.824323
0.824738
0.825147
0.82555
0.825946
0.826334
0.826715
0.827087
0.827452
0.82781
0.828161
0.828508
0.828852
0.829194
0.829535
0.829872
0.830203
0.830527
0.830846
0.831161
0.831472
0.831779
0.832084
0.832385
0.832684
0.832979
0.833268
0.833552
0.833831
0.834106
0.834379
0.834646
0.83491
0.835171
0.835433
0.835701
0.83598
0.836265
0.836539
0.836775
0.836957
0.837087
0.837207
0.837445
0.83824
0.840145
0.844637
0.854389
0.87393
0.910121
0.972381
1.072
1.21869
1.41125
1.62459
1.80738
1.92105
1.96803
1.97544
1.97523
1.97324
1.9705
1.96744
1.9648
1.96271
1.96096
1.95967
1.95871
1.95783
1.95686
1.95573
1.95448
1.95318
1.95189
1.95064
1.94945
1.94832
1.94723
1.94617
1.94513
1.9441
1.94306
1.94199
1.9408
1.93917
1.93621
1.92926
1.91063
1.8586
1.72246
1.45915
1.21601
1.14849
1.14452
1.14452
1.14452
1.14452
1.14452
1.14452
1.14452
1.14452
1.1445
1.14428
1.14345
1.14154
1.13831
1.13372
1.12788
1.12104
1.11346
1.10539
1.09702
1.0885
1.0799
1.07129
1.06268
1.05408
1.04551
1.03696
1.02842
1.0199
1.0114
1.00291
0.994443
0.985985
0.977541
0.96911
0.960694
0.952293
0.94391
0.935547
0.927209
0.9189
0.910627
0.9024
0.894233
0.886143
0.878155
0.870304
0.862634
0.855206
0.848101
0.841418
0.835282
0.829833
0.825218
0.821565
0.81894
0.817291
0.816332
0.815971
0.815941
0.816278
0.817022
0.817896
0.818724
0.819456
0.820099
0.820673
0.821195
0.821684
0.82215
0.822601
0.823041
0.823475
0.823902
0.824323
0.824738
0.825147
0.82555
0.825946
0.826334
0.826715
0.827087
0.827452
0.82781
0.828161
0.828508
0.828852
0.829194
0.829535
0.829872
0.830203
0.830527
0.830846
0.831161
0.831472
0.831779
0.832084
0.832385
0.832684
0.832979
0.833268
0.833552
0.833831
0.834107
0.834379
0.834647
0.83491
0.835171
0.835433
0.835701
0.83598
0.836266
0.836539
0.836775
0.836957
0.837088
0.837207
0.837445
0.838241
0.840145
0.844637
0.85439
0.87393
0.910121
0.972382
1.072
1.21869
1.41125
1.62459
1.80737
1.92105
1.96803
1.97544
1.97523
1.97324
1.9705
1.96744
1.9648
1.96271
1.96096
1.95967
1.95871
1.95783
1.95686
1.95573
1.95448
1.95318
1.95189
1.95064
1.94945
1.94832
1.94723
1.94617
1.94513
1.9441
1.94306
1.94199
1.9408
1.93917
1.93621
1.92926
1.91063
1.8586
1.72246
1.45916
1.21601
1.14849
1.1445
1.1445
1.1445
1.1445
1.1445
1.1445
1.1445
1.1445
1.14447
1.14425
1.14342
1.14152
1.13829
1.13369
1.12786
1.12102
1.11344
1.10537
1.097
1.08848
1.07989
1.07128
1.06267
1.05407
1.0455
1.03695
1.02841
1.0199
1.0114
1.00291
0.994439
0.985982
0.977538
0.969108
0.960692
0.952292
0.943909
0.935546
0.927208
0.918899
0.910626
0.9024
0.894232
0.886143
0.878155
0.870304
0.862634
0.855206
0.848101
0.841418
0.835282
0.829833
0.825218
0.821565
0.818939
0.817291
0.816332
0.815971
0.815941
0.816278
0.817022
0.817896
0.818724
0.819456
0.820099
0.820673
0.821195
0.821684
0.82215
0.822601
0.823041
0.823475
0.823902
0.824323
0.824738
0.825147
0.82555
0.825946
0.826334
0.826715
0.827087
0.827452
0.82781
0.828162
0.828508
0.828852
0.829194
0.829535
0.829872
0.830203
0.830527
0.830846
0.831161
0.831472
0.831779
0.832084
0.832386
0.832684
0.832979
0.833268
0.833552
0.833831
0.834107
0.834379
0.834647
0.83491
0.835171
0.835433
0.835701
0.83598
0.836266
0.836539
0.836775
0.836957
0.837088
0.837207
0.837445
0.838241
0.840145
0.844638
0.85439
0.873931
0.910123
0.972384
1.07201
1.2187
1.41125
1.62459
1.80737
1.92105
1.96803
1.97545
1.97523
1.97324
1.9705
1.96744
1.9648
1.96271
1.96097
1.95967
1.95871
1.95783
1.95686
1.95573
1.95448
1.95318
1.95189
1.95064
1.94945
1.94832
1.94723
1.94617
1.94513
1.9441
1.94306
1.94199
1.9408
1.93917
1.93621
1.92926
1.91063
1.8586
1.72246
1.45916
1.21601
1.14849
1.14428
1.14428
1.14428
1.14428
1.14428
1.14428
1.14428
1.14428
1.14425
1.14404
1.1432
1.1413
1.13807
1.13348
1.12765
1.12081
1.11324
1.10518
1.09682
1.08831
1.07973
1.07113
1.06253
1.05395
1.04539
1.03685
1.02832
1.01982
1.01133
1.00285
0.994385
0.985934
0.977497
0.969072
0.960661
0.952265
0.943886
0.935527
0.927192
0.918885
0.910615
0.90239
0.894225
0.886136
0.87815
0.8703
0.86263
0.855204
0.848099
0.841417
0.835281
0.829832
0.825217
0.821564
0.818939
0.817291
0.816331
0.815971
0.815941
0.816278
0.817022
0.817896
0.818723
0.819456
0.820099
0.820672
0.821195
0.821684
0.82215
0.822601
0.823041
0.823475
0.823902
0.824323
0.824738
0.825147
0.82555
0.825946
0.826334
0.826715
0.827087
0.827452
0.82781
0.828162
0.828508
0.828852
0.829194
0.829535
0.829872
0.830203
0.830527
0.830846
0.831161
0.831472
0.831779
0.832084
0.832386
0.832684
0.832979
0.833268
0.833552
0.833831
0.834107
0.834379
0.834647
0.83491
0.835171
0.835433
0.835702
0.83598
0.836266
0.836539
0.836775
0.836957
0.837088
0.837207
0.837446
0.838241
0.840146
0.844638
0.854391
0.873933
0.910125
0.972388
1.07201
1.2187
1.41126
1.62459
1.80738
1.92105
1.96803
1.97545
1.97523
1.97325
1.9705
1.96744
1.9648
1.96271
1.96097
1.95967
1.95871
1.95783
1.95686
1.95573
1.95448
1.95318
1.95189
1.95064
1.94945
1.94832
1.94723
1.94617
1.94513
1.9441
1.94306
1.94199
1.9408
1.93917
1.93621
1.92926
1.91063
1.85861
1.72247
1.45916
1.21601
1.14849
1.14345
1.14345
1.14345
1.14345
1.14345
1.14345
1.14345
1.14345
1.14342
1.1432
1.14237
1.14047
1.13725
1.13267
1.12685
1.12003
1.11248
1.10445
1.09612
1.08764
1.0791
1.07053
1.06198
1.05343
1.0449
1.0364
1.02791
1.01943
1.01097
1.00253
0.99409
0.985666
0.977253
0.968851
0.960462
0.952086
0.943726
0.935384
0.927065
0.918773
0.910516
0.902303
0.894148
0.88607
0.878093
0.87025
0.862588
0.855168
0.848068
0.841391
0.835259
0.829814
0.825202
0.821552
0.818929
0.817282
0.816325
0.815966
0.815937
0.816275
0.817019
0.817894
0.818722
0.819455
0.820098
0.820672
0.821195
0.821684
0.82215
0.822601
0.823041
0.823474
0.823901
0.824323
0.824738
0.825147
0.82555
0.825946
0.826334
0.826715
0.827087
0.827452
0.82781
0.828162
0.828508
0.828852
0.829194
0.829535
0.829872
0.830203
0.830527
0.830846
0.831161
0.831472
0.831779
0.832084
0.832386
0.832684
0.832979
0.833268
0.833552
0.833831
0.834107
0.834379
0.834647
0.83491
0.835171
0.835433
0.835702
0.83598
0.836266
0.83654
0.836776
0.836957
0.837088
0.837207
0.837446
0.838241
0.840146
0.844639
0.854392
0.873934
0.910127
0.972391
1.07202
1.21871
1.41126
1.6246
1.80738
1.92105
1.96803
1.97545
1.97523
1.97325
1.9705
1.96744
1.9648
1.96271
1.96097
1.95967
1.95871
1.95783
1.95686
1.95573
1.95448
1.95318
1.95189
1.95064
1.94945
1.94832
1.94723
1.94617
1.94513
1.9441
1.94306
1.94199
1.9408
1.93917
1.93621
1.92926
1.91063
1.85861
1.72247
1.45916
1.21601
1.14849
1.14155
1.14155
1.14155
1.14155
1.14155
1.14155
1.14155
1.14154
1.14152
1.1413
1.14047
1.13858
1.13537
1.1308
1.12501
1.11823
1.11072
1.10274
1.09447
1.08605
1.07757
1.06908
1.06059
1.05212
1.04366
1.03522
1.0268
1.01839
1.01
1.00161
0.993235
0.984867
0.976508
0.968158
0.959817
0.951488
0.943173
0.934873
0.926594
0.91834
0.910118
0.90194
0.893817
0.885769
0.877819
0.870003
0.862366
0.854968
0.847889
0.841231
0.835118
0.829689
0.825092
0.821455
0.818843
0.817206
0.816262
0.81591
0.815888
0.816233
0.816983
0.817863
0.818696
0.819433
0.82008
0.820656
0.821182
0.821673
0.822141
0.822594
0.823036
0.82347
0.823898
0.82432
0.824736
0.825146
0.825549
0.825945
0.826334
0.826714
0.827087
0.827452
0.82781
0.828161
0.828508
0.828852
0.829194
0.829535
0.829872
0.830203
0.830527
0.830846
0.831161
0.831472
0.831779
0.832084
0.832386
0.832684
0.832979
0.833268
0.833552
0.833831
0.834107
0.834379
0.834647
0.83491
0.835171
0.835433
0.835702
0.835981
0.836266
0.83654
0.836776
0.836958
0.837088
0.837207
0.837446
0.838241
0.840146
0.844639
0.854393
0.873935
0.910129
0.972394
1.07202
1.21871
1.41126
1.6246
1.80738
1.92105
1.96803
1.97545
1.97523
1.97325
1.9705
1.96744
1.9648
1.96271
1.96097
1.95967
1.95871
1.95783
1.95686
1.95573
1.95448
1.95318
1.95189
1.95064
1.94945
1.94832
1.94723
1.94617
1.94513
1.9441
1.94306
1.94199
1.9408
1.93917
1.93621
1.92926
1.91064
1.85861
1.72247
1.45916
1.21601
1.14849
1.13831
1.13831
1.13831
1.13831
1.13831
1.13831
1.13831
1.13831
1.13829
1.13807
1.13725
1.13537
1.13218
1.12764
1.12189
1.11515
1.1077
1.09979
1.0916
1.08327
1.07488
1.06649
1.0581
1.04973
1.04138
1.03304
1.02472
1.01641
1.00811
0.999819
0.991533
0.983252
0.974977
0.966708
0.958446
0.950192
0.941949
0.933719
0.925506
0.917317
0.909157
0.901038
0.892973
0.884979
0.877083
0.869317
0.861727
0.854375
0.84734
0.840723
0.834648
0.829256
0.824693
0.821088
0.818507
0.816897
0.815987
0.815657
0.815653
0.816021
0.816791
0.81769
0.818539
0.819292
0.819954
0.820545
0.821083
0.821586
0.822064
0.822527
0.822977
0.823419
0.823854
0.824282
0.824703
0.825118
0.825526
0.825926
0.826317
0.8267
0.827075
0.827442
0.827802
0.828155
0.828503
0.828848
0.829191
0.829532
0.82987
0.830201
0.830526
0.830845
0.83116
0.831471
0.831779
0.832084
0.832385
0.832684
0.832979
0.833268
0.833552
0.833831
0.834107
0.834379
0.834647
0.83491
0.835171
0.835433
0.835702
0.835981
0.836266
0.83654
0.836776
0.836958
0.837088
0.837207
0.837446
0.838242
0.840147
0.84464
0.854393
0.873936
0.910131
0.972396
1.07202
1.21871
1.41127
1.6246
1.80738
1.92105
1.96803
1.97545
1.97523
1.97325
1.9705
1.96744
1.9648
1.96271
1.96097
1.95967
1.95871
1.95783
1.95686
1.95573
1.95448
1.95318
1.95189
1.95064
1.94945
1.94832
1.94723
1.94617
1.94513
1.9441
1.94306
1.94199
1.9408
1.93917
1.93621
1.92926
1.91064
1.85861
1.72247
1.45916
1.21601
1.14849
1.13372
1.13372
1.13372
1.13372
1.13372
1.13372
1.13372
1.13372
1.13369
1.13348
1.13267
1.1308
1.12764
1.12314
1.11744
1.11076
1.10338
1.09554
1.08744
1.07921
1.07093
1.06265
1.05438
1.04614
1.03791
1.0297
1.02151
1.01333
1.00515
0.996977
0.988808
0.980642
0.972477
0.964315
0.956157
0.948004
0.939858
0.931723
0.923601
0.9155
0.907427
0.899391
0.891405
0.883489
0.875668
0.867974
0.860455
0.85317
0.8462
0.839646
0.83363
0.828295
0.823786
0.820232
0.817699
0.816134
0.815282
0.814989
0.815016
0.815428
0.816232
0.817167
0.818051
0.818837
0.819531
0.820152
0.82072
0.82125
0.821755
0.822242
0.822717
0.823181
0.823637
0.824085
0.824525
0.824957
0.825381
0.825795
0.826201
0.826597
0.826983
0.827361
0.827731
0.828093
0.828449
0.828801
0.82915
0.829497
0.82984
0.830176
0.830504
0.830827
0.831145
0.831458
0.831768
0.832075
0.832378
0.832678
0.832974
0.833264
0.833549
0.833829
0.834105
0.834377
0.834646
0.834909
0.83517
0.835433
0.835701
0.83598
0.836266
0.83654
0.836776
0.836958
0.837088
0.837207
0.837446
0.838242
0.840147
0.84464
0.854394
0.873937
0.910132
0.972398
1.07202
1.21872
1.41127
1.6246
1.80738
1.92105
1.96803
1.97545
1.97523
1.97325
1.9705
1.96744
1.9648
1.96271
1.96097
1.95967
1.95871
1.95783
1.95686
1.95573
1.95448
1.95318
1.95189
1.95064
1.94945
1.94832
1.94723
1.94617
1.94513
1.9441
1.94306
1.94199
1.9408
1.93917
1.93621
1.92926
1.91064
1.85861
1.72247
1.45917
1.21601
1.14849
1.12788
1.12788
1.12788
1.12788
1.12788
1.12788
1.12788
1.12788
1.12786
1.12765
1.12685
1.12501
1.12189
1.11744
1.11179
1.10518
1.09787
1.09011
1.08209
1.07395
1.06578
1.05761
1.04947
1.04135
1.03326
1.0252
1.01714
1.0091
1.00106
0.993031
0.984998
0.976965
0.968931
0.960897
0.952862
0.94483
0.936801
0.92878
0.92077
0.912777
0.904808
0.896874
0.888988
0.881168
0.87344
0.865838
0.858406
0.851207
0.84432
0.837845
0.831906
0.826644
0.822205
0.818717
0.816247
0.814743
0.813963
0.813717
0.813788
0.81426
0.815111
0.816094
0.817027
0.817861
0.818601
0.819267
0.819878
0.820452
0.820998
0.821526
0.82204
0.822543
0.823036
0.82352
0.823995
0.82446
0.824916
0.825362
0.825798
0.826222
0.826637
0.827041
0.827435
0.827821
0.828199
0.828572
0.828942
0.829308
0.829668
0.830021
0.830365
0.830702
0.831033
0.831359
0.83168
0.831997
0.83231
0.832618
0.832921
0.833219
0.83351
0.833795
0.834076
0.834352
0.834625
0.834892
0.835155
0.83542
0.835691
0.835971
0.836258
0.836533
0.83677
0.836953
0.837085
0.837205
0.837444
0.83824
0.840145
0.844639
0.854393
0.873937
0.910132
0.972398
1.07203
1.21872
1.41127
1.62461
1.80738
1.92105
1.96803
1.97545
1.97523
1.97325
1.9705
1.96744
1.9648
1.96271
1.96097
1.95967
1.95871
1.95783
1.95686
1.95573
1.95448
1.95318
1.95189
1.95064
1.94945
1.94832
1.94723
1.94617
1.94513
1.9441
1.94306
1.94199
1.9408
1.93917
1.93621
1.92926
1.91064
1.85861
1.72247
1.45917
1.21601
1.14849
1.12104
1.12104
1.12104
1.12104
1.12104
1.12104
1.12104
1.12104
1.12102
1.12081
1.12003
1.11823
1.11515
1.11076
1.10518
1.09863
1.09139
1.08369
1.07574
1.06768
1.05959
1.05152
1.04349
1.0355
1.02754
1.01961
1.0117
1.0038
0.995909
0.988021
0.980134
0.972245
0.964353
0.956458
0.948561
0.940662
0.932764
0.924871
0.916985
0.909114
0.901264
0.893446
0.885673
0.877964
0.870343
0.862845
0.855516
0.848415
0.841623
0.835241
0.829391
0.824214
0.819856
0.816446
0.814049
0.812612
0.811917
0.811719
0.811847
0.812389
0.813296
0.814334
0.815325
0.816216
0.817011
0.817732
0.818398
0.819024
0.819623
0.820203
0.820767
0.82132
0.821862
0.822394
0.822916
0.823428
0.823929
0.82442
0.824899
0.825366
0.825822
0.826267
0.826701
0.827126
0.827542
0.827952
0.828357
0.828757
0.829151
0.829536
0.829912
0.830279
0.830639
0.830992
0.83134
0.831682
0.832019
0.832351
0.832676
0.832994
0.833305
0.833608
0.833907
0.834199
0.834486
0.834767
0.835044
0.83532
0.835601
0.835891
0.836187
0.83647
0.836715
0.836904
0.837042
0.837168
0.837413
0.838215
0.840124
0.844623
0.854381
0.873929
0.910128
0.972397
1.07203
1.21872
1.41127
1.62461
1.80738
1.92105
1.96803
1.97545
1.97523
1.97325
1.9705
1.96744
1.9648
1.96271
1.96097
1.95967
1.95871
1.95783
1.95686
1.95573
1.95448
1.95318
1.95189
1.95064
1.94945
1.94832
1.94723
1.94617
1.94513
1.9441
1.94306
1.94199
1.9408
1.93917
1.93621
1.92926
1.91064
1.85861
1.72247
1.45917
1.21601
1.14849
1.11346
1.11346
1.11346
1.11346
1.11346
1.11346
1.11346
1.11346
1.11344
1.11324
1.11248
1.11072
1.1077
1.10338
1.09787
1.09139
1.08419
1.07654
1.06864
1.06063
1.0526
1.0446
1.03665
1.02875
1.02091
1.0131
1.00532
0.997554
0.989805
0.982061
0.974319
0.966575
0.958828
0.951076
0.94332
0.935561
0.9278
0.920042
0.912288
0.904547
0.896824
0.88913
0.881479
0.873888
0.866384
0.859
0.851781
0.844788
0.8381
0.831818
0.826065
0.82098
0.81671
0.813384
0.811069
0.8097
0.80909
0.808948
0.809136
0.809753
0.810722
0.811819
0.81287
0.813822
0.814678
0.815458
0.816183
0.816869
0.817526
0.818163
0.818785
0.819394
0.819992
0.820579
0.821156
0.821722
0.822277
0.82282
0.823351
0.82387
0.824377
0.824872
0.825356
0.825829
0.826294
0.826751
0.827204
0.82765
0.828089
0.828519
0.828938
0.829348
0.82975
0.830146
0.830534
0.830916
0.831292
0.831661
0.832023
0.832377
0.832722
0.833059
0.83339
0.833714
0.834031
0.834341
0.834645
0.834948
0.835255
0.83557
0.83589
0.836196
0.836462
0.836674
0.836833
0.836981
0.837248
0.838077
0.840003
0.844523
0.854303
0.873873
0.910091
0.972376
1.07202
1.21872
1.41127
1.62461
1.80739
1.92105
1.96803
1.97545
1.97523
1.97325
1.9705
1.96744
1.9648
1.96271
1.96097
1.95967
1.95871
1.95783
1.95686
1.95573
1.95448
1.95318
1.95189
1.95064
1.94945
1.94832
1.94723
1.94617
1.94513
1.9441
1.94306
1.94199
1.9408
1.93917
1.93621
1.92926
1.91064
1.85861
1.72247
1.45917
1.21601
1.14849
1.10539
1.10539
1.10539
1.10539
1.10539
1.10539
1.10539
1.10539
1.10537
1.10518
1.10445
1.10274
1.09979
1.09554
1.09011
1.08369
1.07654
1.06893
1.06104
1.05305
1.04504
1.03708
1.02918
1.02134
1.01358
1.00586
0.998187
0.990543
0.982918
0.975306
0.967698
0.960092
0.952484
0.944872
0.937255
0.929634
0.922011
0.914388
0.906769
0.899159
0.891566
0.884
0.876474
0.869006
0.861622
0.854355
0.847251
0.84037
0.83379
0.827613
0.82196
0.816971
0.812791
0.809552
0.807318
0.80603
0.80549
0.805399
0.805653
0.806349
0.80738
0.808534
0.809646
0.810659
0.811576
0.812417
0.813203
0.813948
0.814665
0.815361
0.816042
0.81671
0.817366
0.818011
0.818645
0.819269
0.81988
0.82048
0.821068
0.821642
0.822205
0.822755
0.823293
0.823821
0.82434
0.824851
0.825356
0.825855
0.826347
0.826828
0.827299
0.82776
0.828212
0.828657
0.829095
0.829526
0.82995
0.830367
0.830776
0.831176
0.831566
0.831948
0.832323
0.83269
0.83305
0.833401
0.833747
0.834091
0.834438
0.834794
0.835154
0.835501
0.835809
0.836063
0.836266
0.836462
0.836774
0.837663
0.839631
0.844205
0.854041
0.873665
0.909936
0.972271
1.07195
1.21869
1.41126
1.62461
1.80739
1.92106
1.96803
1.97545
1.97523
1.97325
1.9705
1.96744
1.9648
1.96271
1.96097
1.95967
1.95871
1.95783
1.95686
1.95573
1.95448
1.95318
1.95189
1.95064
1.94945
1.94832
1.94723
1.94617
1.94513
1.9441
1.94306
1.94199
1.9408
1.93917
1.93621
1.92926
1.91064
1.85861
1.72248
1.45917
1.21601
1.14849
1.09702
1.09702
1.09702
1.09702
1.09702
1.09702
1.09702
1.09702
1.097
1.09682
1.09612
1.09447
1.0916
1.08744
1.08209
1.07574
1.06864
1.06104
1.05317
1.04516
1.03715
1.02918
1.02129
1.01348
1.00576
0.998102
0.990505
0.982951
0.975428
0.967925
0.960436
0.952953
0.945472
0.937989
0.930504
0.923015
0.915524
0.908032
0.900543
0.893063
0.885598
0.878158
0.870756
0.863411
0.856148
0.848999
0.84201
0.835241
0.82877
0.822698
0.817145
0.812251
0.808162
0.805008
0.802855
0.801643
0.801171
0.801132
0.801441
0.802212
0.803306
0.804515
0.805683
0.806754
0.80773
0.80863
0.809473
0.810277
0.811052
0.811806
0.812544
0.813269
0.813982
0.814684
0.815375
0.816054
0.816722
0.817378
0.818022
0.818653
0.819271
0.819877
0.820471
0.821054
0.821628
0.822194
0.822754
0.823308
0.823854
0.82439
0.824915
0.82543
0.825936
0.826435
0.826926
0.82741
0.827886
0.828355
0.828816
0.829268
0.829709
0.830142
0.830567
0.830985
0.831394
0.831797
0.832193
0.832589
0.83299
0.8334
0.833816
0.834222
0.834592
0.83491
0.835182
0.835453
0.835837
0.83682
0.83887
0.843535
0.853464
0.873181
0.909546
0.971972
1.07174
1.21856
1.4112
1.62459
1.80738
1.92106
1.96803
1.97545
1.97523
1.97325
1.9705
1.96744
1.9648
1.96271
1.96097
1.95967
1.95871
1.95783
1.95686
1.95573
1.95448
1.95318
1.95189
1.95064
1.94945
1.94832
1.94723
1.94617
1.94513
1.9441
1.94306
1.94199
1.9408
1.93917
1.93621
1.92926
1.91064
1.85861
1.72248
1.45917
1.21602
1.14849
1.0885
1.0885
1.0885
1.0885
1.0885
1.0885
1.0885
1.0885
1.08848
1.08831
1.08764
1.08605
1.08327
1.07921
1.07395
1.06768
1.06063
1.05305
1.04516
1.03714
1.02908
1.02108
1.01316
1.00535
0.997632
0.990003
0.982448
0.974953
0.967504
0.960087
0.952693
0.945314
0.937943
0.930575
0.923208
0.91584
0.908471
0.901102
0.893737
0.88638
0.879038
0.87172
0.864438
0.857212
0.850066
0.843032
0.836156
0.829497
0.823133
0.817164
0.811709
0.806907
0.802906
0.799834
0.797758
0.796618
0.796205
0.796217
0.796579
0.797413
0.798565
0.799825
0.801046
0.802171
0.8032
0.804153
0.80505
0.805908
0.806736
0.807543
0.808334
0.809112
0.809879
0.810633
0.811377
0.81211
0.812831
0.81354
0.814236
0.81492
0.815591
0.81625
0.816897
0.817533
0.81816
0.81878
0.819393
0.82
0.820599
0.821188
0.821767
0.822335
0.822895
0.823447
0.823991
0.824527
0.825057
0.825578
0.826092
0.826596
0.82709
0.827576
0.828054
0.828526
0.828991
0.82945
0.829906
0.830363
0.830828
0.831305
0.831794
0.832275
0.832727
0.833131
0.833494
0.833867
0.834357
0.835447
0.837628
0.842418
0.852477
0.872323
0.908815
0.971368
1.07127
1.21821
1.41099
1.62448
1.80735
1.92105
1.96803
1.97545
1.97523
1.97325
1.9705
1.96744
1.9648
1.96271
1.96097
1.95967
1.95871
1.95783
1.95686
1.95573
1.95448
1.95318
1.95189
1.95064
1.94945
1.94832
1.94723
1.94617
1.94513
1.9441
1.94306
1.94199
1.9408
1.93918
1.93621
1.92926
1.91064
1.85861
1.72248
1.45918
1.21602
1.14849
1.07991
1.07991
1.07991
1.07991
1.07991
1.07991
1.07991
1.0799
1.07989
1.07973
1.0791
1.07757
1.07488
1.07093
1.06578
1.05959
1.0526
1.04504
1.03715
1.02908
1.02098
1.01292
1.00495
0.997097
0.989354
0.981717
0.974172
0.966705
0.959299
0.951941
0.944618
0.93732
0.930038
0.922767
0.915502
0.908241
0.900981
0.893725
0.886473
0.879231
0.872003
0.8648
0.857633
0.85052
0.843486
0.836563
0.829795
0.823242
0.81698
0.811109
0.805748
0.801034
0.797116
0.794122
0.792117
0.791044
0.790679
0.790736
0.791152
0.792038
0.793243
0.794548
0.795816
0.796988
0.798065
0.799066
0.800011
0.800916
0.801792
0.802646
0.803485
0.80431
0.805124
0.805926
0.806718
0.807498
0.808266
0.809023
0.809767
0.810499
0.811218
0.811925
0.812621
0.813305
0.813981
0.814649
0.815311
0.815967
0.816616
0.817254
0.817882
0.8185
0.819109
0.81971
0.820304
0.820891
0.82147
0.822042
0.822605
0.82316
0.823706
0.824245
0.824777
0.825305
0.825829
0.82635
0.826871
0.827398
0.827937
0.828495
0.829069
0.829644
0.830195
0.830706
0.831182
0.831684
0.832311
0.833509
0.835857
0.840799
0.851017
0.871018
0.907664
0.970371
1.07043
1.21754
1.41049
1.62417
1.80721
1.92101
1.96803
1.97545
1.97523
1.97325
1.9705
1.96744
1.9648
1.96271
1.96097
1.95968
1.95871
1.95783
1.95686
1.95573
1.95448
1.95318
1.95189
1.95064
1.94945
1.94832
1.94723
1.94617
1.94513
1.9441
1.94306
1.94199