/*--------------------------------*- C++ -*----------------------------------*\
  =========                 |
  \\      /  F ield         | OpenFOAM: The Open Source CFD Toolbox
   \\    /   O peration     | Website:  https://openfoam.org
    \\  /    A nd           | Version:  13
     \\/     M anipulation  |
\*---------------------------------------------------------------------------*/
FoamFile
{
    format      ascii;
    class       volScalarField;
    location    "0.0013";
    object      T;
}
// * * * * * * * * * * * * * * * * * * * * * * * * * * * * * * * * * * * * * //

dimensions      [0 0 0 1 0 0 0];

internalField   nonuniform List<scalar> 
33334
(
1669.46
1669.46
1669.46
1669.46
1669.46
1669.46
1669.46
1669.46
1669.45
1669.29
1668.56
1666.44
1661.91
1653.94
1641.72
1624.88
1603.59
1578.44
1550.4
1520.53
1489.85
1459.22
1429.3
1400.52
1373.15
1347.3
1323.01
1300.24
1278.91
1258.95
1240.24
1222.69
1206.2
1190.67
1176.02
1162.17
1149.05
1136.6
1124.76
1113.48
1102.72
1092.43
1082.59
1073.16
1064.12
1055.46
1047.17
1039.25
1031.7
1024.54
1017.8
1011.52
1005.72
1000.45
995.708
991.472
987.629
984.126
980.845
977.837
975.095
972.497
969.978
967.519
965.116
962.771
960.487
958.265
956.104
954.004
951.963
949.979
948.049
946.171
944.342
942.56
940.823
939.129
937.475
935.859
934.28
932.737
931.227
929.751
928.306
926.893
925.511
924.158
922.833
921.534
920.26
919.01
917.785
916.583
915.404
914.247
913.112
911.999
910.906
909.832
908.777
907.741
906.722
905.721
904.738
903.774
902.825
901.889
900.958
900.028
899.102
898.198
897.344
896.566
895.855
895.141
894.274
892.966
890.419
885.166
874.552
854.57
820.359
767.932
696.996
613.54
529.716
459.465
411.566
386.415
377.085
374.686
374.336
374.348
374.482
374.683
374.822
374.838
374.795
374.68
374.509
374.326
374.167
374.043
373.949
373.869
373.791
373.708
373.616
373.518
373.416
373.317
373.224
373.139
373.063
372.991
372.915
372.808
372.604
372.103
370.732
366.834
356.133
333.062
307.987
300.428
1669.46
1669.46
1669.46
1669.46
1669.46
1669.46
1669.46
1669.46
1669.45
1669.29
1668.56
1666.44
1661.91
1653.94
1641.72
1624.88
1603.59
1578.44
1550.4
1520.53
1489.85
1459.22
1429.3
1400.52
1373.15
1347.3
1323.01
1300.24
1278.91
1258.95
1240.24
1222.69
1206.2
1190.67
1176.02
1162.17
1149.05
1136.6
1124.76
1113.48
1102.72
1092.43
1082.59
1073.16
1064.12
1055.46
1047.17
1039.25
1031.7
1024.54
1017.8
1011.51
1005.72
1000.45
995.707
991.471
987.628
984.125
980.844
977.836
975.093
972.496
969.977
967.517
965.114
962.77
960.486
958.263
956.103
954.003
951.962
949.977
948.047
946.169
944.341
942.559
940.822
939.127
937.473
935.858
934.279
932.735
931.226
929.749
928.305
926.892
925.509
924.156
922.831
921.533
920.259
919.009
917.783
916.581
915.402
914.246
913.111
911.997
910.904
909.831
908.776
907.739
906.72
905.72
904.737
903.772
902.824
901.887
900.956
900.027
899.101
898.197
897.342
896.565
895.854
895.14
894.273
892.966
890.421
885.172
874.565
854.592
820.394
767.978
697.046
613.585
529.75
459.486
411.577
386.419
377.086
374.685
374.335
374.347
374.481
374.683
374.821
374.837
374.795
374.679
374.508
374.326
374.166
374.042
373.948
373.868
373.79
373.707
373.615
373.517
373.416
373.317
373.224
373.139
373.062
372.99
372.914
372.808
372.603
372.102
370.732
366.833
356.133
333.062
307.987
300.428
1669.46
1669.46
1669.46
1669.46
1669.46
1669.46
1669.46
1669.46
1669.45
1669.29
1668.56
1666.44
1661.91
1653.94
1641.72
1624.88
1603.59
1578.44
1550.4
1520.53
1489.85
1459.22
1429.3
1400.52
1373.15
1347.3
1323.01
1300.24
1278.91
1258.95
1240.24
1222.69
1206.2
1190.67
1176.02
1162.17
1149.05
1136.6
1124.76
1113.48
1102.72
1092.43
1082.59
1073.16
1064.12
1055.46
1047.17
1039.25
1031.7
1024.54
1017.8
1011.51
1005.72
1000.45
995.705
991.469
987.627
984.123
980.842
977.834
975.092
972.494
969.975
967.516
965.113
962.768
960.484
958.261
956.101
954.001
951.96
949.975
948.045
946.167
944.338
942.557
940.82
939.125
937.471
935.855
934.276
932.733
931.224
929.747
928.302
926.889
925.507
924.154
922.829
921.53
920.256
919.007
917.781
916.579
915.4
914.243
913.108
911.995
910.902
909.828
908.774
907.737
906.718
905.717
904.734
903.77
902.821
901.885
900.954
900.024
899.099
898.194
897.34
896.562
895.851
895.137
894.271
892.964
890.422
885.178
874.581
854.624
820.444
768.045
697.125
613.663
529.815
459.529
411.6
386.427
377.087
374.684
374.334
374.346
374.48
374.681
374.82
374.836
374.794
374.678
374.508
374.325
374.165
374.042
373.947
373.867
373.79
373.706
373.615
373.516
373.415
373.316
373.223
373.138
373.062
372.99
372.914
372.808
372.603
372.102
370.732
366.833
356.133
333.062
307.987
300.428
1669.46
1669.46
1669.46
1669.46
1669.46
1669.46
1669.46
1669.46
1669.45
1669.29
1668.56
1666.44
1661.91
1653.94
1641.72
1624.88
1603.59
1578.44
1550.4
1520.53
1489.85
1459.22
1429.3
1400.52
1373.15
1347.3
1323.01
1300.23
1278.91
1258.95
1240.24
1222.69
1206.2
1190.67
1176.02
1162.17
1149.05
1136.6
1124.76
1113.48
1102.72
1092.43
1082.59
1073.16
1064.12
1055.46
1047.17
1039.25
1031.7
1024.54
1017.8
1011.51
1005.72
1000.45
995.705
991.469
987.626
984.122
980.842
977.833
975.091
972.493
969.974
967.515
965.111
962.767
960.482
958.26
956.099
953.999
951.958
949.974
948.044
946.166
944.337
942.555
940.818
939.124
937.469
935.854
934.275
932.731
931.222
929.745
928.301
926.887
925.505
924.152
922.827
921.528
920.254
919.004
917.779
916.577
915.398
914.241
913.106
911.993
910.9
909.826
908.771
907.734
906.716
905.715
904.732
903.767
902.819
901.882
900.951
900.022
899.096
898.191
897.337
896.559
895.848
895.134
894.269
892.963
890.423
885.182
874.593
854.647
820.482
768.1
697.192
613.732
529.873
459.569
411.62
386.434
377.089
374.683
374.333
374.345
374.479
374.68
374.819
374.835
374.793
374.678
374.507
374.324
374.164
374.041
373.947
373.867
373.789
373.706
373.614
373.516
373.415
373.316
373.223
373.138
373.061
372.99
372.914
372.808
372.603
372.102
370.732
366.833
356.133
333.062
307.987
300.428
1669.46
1669.46
1669.46
1669.46
1669.46
1669.46
1669.46
1669.46
1669.45
1669.29
1668.56
1666.44
1661.91
1653.94
1641.72
1624.88
1603.59
1578.44
1550.4
1520.53
1489.85
1459.22
1429.3
1400.52
1373.15
1347.3
1323.01
1300.23
1278.91
1258.95
1240.24
1222.69
1206.2
1190.67
1176.02
1162.17
1149.05
1136.6
1124.76
1113.48
1102.72
1092.43
1082.59
1073.16
1064.12
1055.46
1047.17
1039.25
1031.7
1024.54
1017.8
1011.51
1005.72
1000.44
995.704
991.468
987.626
984.122
980.841
977.833
975.09
972.493
969.974
967.514
965.111
962.766
960.482
958.259
956.099
953.999
951.958
949.973
948.043
946.165
944.336
942.554
940.817
939.123
937.468
935.853
934.274
932.73
931.221
929.744
928.299
926.886
925.504
924.151
922.826
921.527
920.253
919.003
917.778
916.575
915.396
914.24
913.105
911.991
910.898
909.825
908.77
907.733
906.714
905.713
904.73
903.766
902.817
901.881
900.95
900.02
899.094
898.19
897.335
896.557
895.846
895.132
894.267
892.961
890.422
885.184
874.598
854.658
820.501
768.128
697.227
613.769
529.905
459.591
411.632
386.439
377.089
374.683
374.333
374.345
374.478
374.68
374.819
374.835
374.793
374.677
374.507
374.324
374.164
374.041
373.946
373.867
373.789
373.706
373.614
373.516
373.415
373.316
373.223
373.138
373.061
372.99
372.914
372.808
372.603
372.102
370.732
366.834
356.133
333.062
307.988
300.428
1669.46
1669.46
1669.46
1669.46
1669.46
1669.46
1669.46
1669.46
1669.45
1669.29
1668.56
1666.44
1661.91
1653.94
1641.71
1624.88
1603.59
1578.44
1550.4
1520.53
1489.85
1459.22
1429.3
1400.52
1373.15
1347.3
1323.01
1300.23
1278.91
1258.95
1240.24
1222.69
1206.2
1190.67
1176.02
1162.17
1149.05
1136.6
1124.76
1113.48
1102.72
1092.43
1082.59
1073.16
1064.12
1055.46
1047.17
1039.25
1031.7
1024.54
1017.8
1011.51
1005.72
1000.44
995.704
991.468
987.626
984.122
980.841
977.833
975.09
972.493
969.974
967.514
965.111
962.766
960.482
958.259
956.099
953.999
951.957
949.973
948.043
946.165
944.336
942.554
940.817
939.122
937.468
935.852
934.273
932.73
931.22
929.744
928.299
926.886
925.504
924.151
922.825
921.526
920.252
919.003
917.777
916.575
915.396
914.239
913.104
911.991
910.898
909.824
908.769
907.732
906.713
905.712
904.73
903.765
902.816
901.88
900.949
900.019
899.094
898.189
897.335
896.556
895.845
895.131
894.266
892.961
890.422
885.184
874.599
854.661
820.507
768.137
697.239
613.782
529.917
459.6
411.637
386.441
377.09
374.683
374.333
374.344
374.478
374.68
374.819
374.835
374.792
374.677
374.506
374.324
374.164
374.041
373.946
373.867
373.789
373.706
373.614
373.516
373.415
373.316
373.223
373.138
373.061
372.99
372.914
372.808
372.603
372.102
370.732
366.834
356.133
333.063
307.988
300.428
1669.46
1669.46
1669.46
1669.46
1669.46
1669.46
1669.46
1669.46
1669.45
1669.29
1668.56
1666.44
1661.91
1653.94
1641.71
1624.88
1603.59
1578.44
1550.4
1520.53
1489.85
1459.22
1429.3
1400.52
1373.15
1347.3
1323.01
1300.23
1278.91
1258.95
1240.24
1222.69
1206.2
1190.67
1176.02
1162.17
1149.05
1136.6
1124.76
1113.48
1102.72
1092.43
1082.59
1073.16
1064.12
1055.46
1047.17
1039.25
1031.7
1024.54
1017.8
1011.51
1005.72
1000.44
995.704
991.468
987.626
984.122
980.841
977.833
975.09
972.493
969.974
967.514
965.111
962.766
960.482
958.259
956.099
953.999
951.957
949.973
948.043
946.165
944.336
942.554
940.817
939.122
937.468
935.852
934.273
932.73
931.22
929.744
928.299
926.886
925.503
924.15
922.825
921.526
920.252
919.003
917.777
916.575
915.396
914.239
913.104
911.99
910.897
909.824
908.769
907.732
906.713
905.712
904.729
903.765
902.816
901.88
900.949
900.019
899.093
898.189
897.334
896.556
895.845
895.131
894.266
892.96
890.421
885.184
874.599
854.661
820.508
768.138
697.241
613.784
529.919
459.602
411.639
386.441
377.09
374.683
374.333
374.344
374.478
374.68
374.819
374.835
374.792
374.677
374.506
374.324
374.164
374.041
373.946
373.867
373.789
373.706
373.614
373.516
373.415
373.316
373.223
373.138
373.061
372.99
372.914
372.808
372.603
372.102
370.732
366.834
356.133
333.063
307.988
300.428
1669.46
1669.46
1669.46
1669.46
1669.46
1669.46
1669.46
1669.46
1669.44
1669.29
1668.56
1666.44
1661.91
1653.93
1641.71
1624.88
1603.58
1578.44
1550.4
1520.53
1489.85
1459.22
1429.3
1400.52
1373.15
1347.3
1323
1300.23
1278.91
1258.95
1240.24
1222.69
1206.2
1190.67
1176.02
1162.17
1149.05
1136.6
1124.76
1113.48
1102.72
1092.43
1082.59
1073.16
1064.12
1055.46
1047.17
1039.25
1031.7
1024.54
1017.8
1011.51
1005.72
1000.44
995.704
991.468
987.626
984.122
980.841
977.833
975.09
972.493
969.974
967.514
965.111
962.766
960.482
958.259
956.099
953.999
951.957
949.973
948.043
946.165
944.336
942.554
940.817
939.122
937.468
935.852
934.273
932.73
931.22
929.744
928.299
926.886
925.503
924.15
922.825
921.526
920.252
919.003
917.777
916.575
915.396
914.239
913.104
911.99
910.897
909.824
908.769
907.732
906.713
905.712
904.729
903.765
902.816
901.88
900.949
900.019
899.093
898.189
897.334
896.556
895.845
895.131
894.266
892.96
890.421
885.184
874.599
854.661
820.507
768.138
697.24
613.784
529.919
459.602
411.639
386.442
377.09
374.683
374.333
374.344
374.478
374.68
374.819
374.835
374.792
374.677
374.506
374.324
374.164
374.041
373.946
373.867
373.789
373.706
373.614
373.516
373.415
373.316
373.223
373.138
373.061
372.99
372.914
372.808
372.603
372.102
370.732
366.834
356.133
333.063
307.988
300.428
1669.45
1669.45
1669.45
1669.45
1669.45
1669.45
1669.45
1669.44
1669.43
1669.28
1668.54
1666.43
1661.9
1653.92
1641.7
1624.87
1603.57
1578.43
1550.39
1520.52
1489.84
1459.21
1429.29
1400.52
1373.14
1347.29
1323
1300.23
1278.91
1258.95
1240.24
1222.69
1206.2
1190.67
1176.02
1162.17
1149.05
1136.6
1124.76
1113.48
1102.72
1092.43
1082.59
1073.16
1064.12
1055.46
1047.17
1039.25
1031.7
1024.54
1017.8
1011.51
1005.72
1000.44
995.704
991.468
987.626
984.122
980.841
977.833
975.09
972.493
969.974
967.514
965.111
962.766
960.482
958.259
956.099
953.999
951.957
949.973
948.043
946.165
944.336
942.554
940.817
939.122
937.468
935.852
934.273
932.73
931.22
929.744
928.299
926.886
925.503
924.15
922.825
921.526
920.252
919.003
917.777
916.575
915.396
914.239
913.104
911.99
910.897
909.824
908.769
907.732
906.713
905.712
904.729
903.765
902.816
901.88
900.949
900.019
899.093
898.189
897.334
896.556
895.845
895.131
894.266
892.96
890.421
885.183
874.598
854.66
820.506
768.136
697.239
613.783
529.919
459.602
411.639
386.442
377.09
374.683
374.333
374.344
374.478
374.68
374.819
374.835
374.792
374.677
374.506
374.324
374.164
374.041
373.946
373.867
373.789
373.706
373.614
373.516
373.415
373.316
373.223
373.138
373.061
372.99
372.914
372.808
372.603
372.102
370.732
366.834
356.133
333.063
307.988
300.428
1669.29
1669.29
1669.29
1669.29
1669.29
1669.29
1669.29
1669.29
1669.28
1669.12
1668.39
1666.28
1661.75
1653.77
1641.56
1624.74
1603.45
1578.32
1550.29
1520.43
1489.76
1459.14
1429.23
1400.46
1373.09
1347.25
1322.97
1300.2
1278.88
1258.92
1240.22
1222.67
1206.18
1190.66
1176.01
1162.16
1149.04
1136.59
1124.76
1113.48
1102.71
1092.43
1082.58
1073.15
1064.12
1055.46
1047.17
1039.25
1031.7
1024.54
1017.8
1011.51
1005.72
1000.44
995.704
991.468
987.625
984.122
980.841
977.833
975.09
972.492
969.974
967.514
965.111
962.766
960.482
958.259
956.099
953.999
951.957
949.973
948.043
946.165
944.336
942.554
940.817
939.122
937.468
935.852
934.273
932.73
931.22
929.744
928.299
926.886
925.503
924.15
922.825
921.526
920.252
919.003
917.777
916.575
915.396
914.239
913.104
911.99
910.897
909.824
908.769
907.732
906.713
905.712
904.729
903.765
902.816
901.88
900.949
900.019
899.093
898.189
897.334
896.556
895.845
895.131
894.266
892.96
890.421
885.183
874.598
854.659
820.504
768.134
697.236
613.781
529.917
459.602
411.639
386.442
377.09
374.683
374.333
374.345
374.478
374.68
374.819
374.835
374.792
374.677
374.506
374.324
374.164
374.041
373.946
373.867
373.789
373.706
373.614
373.516
373.415
373.316
373.223
373.138
373.061
372.99
372.914
372.808
372.603
372.102
370.732
366.834
356.133
333.063
307.988
300.428
1668.56
1668.56
1668.56
1668.56
1668.56
1668.56
1668.56
1668.56
1668.54
1668.39
1667.66
1665.55
1661.03
1653.08
1640.89
1624.11
1602.87
1577.79
1549.81
1520
1489.38
1458.81
1428.94
1400.21
1372.87
1347.05
1322.79
1300.04
1278.74
1258.8
1240.11
1222.57
1206.09
1190.58
1175.94
1162.1
1148.99
1136.54
1124.71
1113.44
1102.68
1092.4
1082.56
1073.13
1064.1
1055.44
1047.16
1039.24
1031.69
1024.53
1017.79
1011.51
1005.71
1000.44
995.7
991.465
987.623
984.12
980.839
977.831
975.089
972.492
969.973
967.514
965.11
962.766
960.481
958.259
956.098
953.998
951.957
949.973
948.043
946.165
944.336
942.554
940.817
939.122
937.468
935.852
934.273
932.73
931.22
929.744
928.299
926.886
925.503
924.15
922.825
921.526
920.252
919.003
917.777
916.575
915.396
914.239
913.104
911.99
910.897
909.824
908.769
907.732
906.713
905.712
904.729
903.765
902.816
901.88
900.949
900.019
899.093
898.189
897.334
896.556
895.845
895.131
894.266
892.96
890.421
885.183
874.597
854.658
820.502
768.131
697.233
613.778
529.916
459.601
411.639
386.442
377.09
374.683
374.333
374.345
374.478
374.68
374.819
374.835
374.792
374.677
374.507
374.324
374.164
374.041
373.946
373.867
373.789
373.706
373.614
373.516
373.415
373.316
373.223
373.138
373.061
372.99
372.914
372.808
372.603
372.102
370.732
366.834
356.134
333.064
307.988
300.428
1666.44
1666.44
1666.44
1666.44
1666.44
1666.44
1666.44
1666.44
1666.43
1666.28
1665.55
1663.46
1658.97
1651.07
1638.97
1622.3
1601.2
1576.27
1548.45
1518.79
1488.31
1457.87
1428.11
1399.47
1372.22
1346.48
1322.27
1299.58
1278.33
1258.42
1239.77
1222.26
1205.81
1190.31
1175.7
1161.88
1148.79
1136.36
1124.54
1113.28
1102.54
1092.27
1082.44
1073.03
1064
1055.36
1047.08
1039.16
1031.62
1024.47
1017.74
1011.46
1005.67
1000.41
995.67
991.438
987.601
984.1
980.822
977.817
975.077
972.481
969.964
967.506
965.104
962.76
960.477
958.255
956.095
953.996
951.955
949.971
948.042
946.164
944.335
942.553
940.816
939.122
937.468
935.852
934.273
932.73
931.22
929.743
928.299
926.886
925.503
924.15
922.825
921.526
920.252
919.002
917.777
916.575
915.396
914.239
913.104
911.99
910.897
909.824
908.769
907.732
906.713
905.712
904.729
903.765
902.816
901.88
900.949
900.019
899.093
898.189
897.334
896.556
895.845
895.131
894.266
892.96
890.421
885.183
874.597
854.657
820.501
768.129
697.231
613.776
529.914
459.6
411.638
386.442
377.09
374.683
374.333
374.345
374.478
374.68
374.819
374.835
374.792
374.677
374.507
374.324
374.164
374.041
373.946
373.867
373.789
373.706
373.614
373.516
373.415
373.316
373.223
373.138
373.061
372.99
372.914
372.808
372.603
372.102
370.732
366.834
356.134
333.064
307.988
300.428
1661.91
1661.91
1661.91
1661.91
1661.91
1661.91
1661.91
1661.91
1661.9
1661.75
1661.03
1658.97
1654.56
1646.78
1634.87
1618.44
1597.63
1573.03
1545.55
1516.23
1486.06
1455.89
1426.38
1397.95
1370.87
1345.28
1321.2
1298.61
1277.45
1257.62
1239.04
1221.59
1205.19
1189.74
1175.17
1161.39
1148.33
1135.93
1124.15
1112.91
1102.19
1091.94
1082.14
1072.74
1063.74
1055.11
1046.85
1038.95
1031.43
1024.29
1017.58
1011.31
1005.53
1000.28
995.551
991.329
987.504
984.011
980.738
977.744
975.01
972.421
969.91
967.458
965.061
962.722
960.443
958.226
956.069
953.973
951.936
949.954
948.027
946.151
944.324
942.544
940.809
939.115
937.462
935.847
934.269
932.726
931.218
929.741
928.297
926.884
925.502
924.15
922.825
921.526
920.252
919.002
917.777
916.574
915.395
914.239
913.104
911.99
910.897
909.824
908.769
907.732
906.713
905.712
904.729
903.765
902.816
901.88
900.949
900.019
899.093
898.189
897.334
896.556
895.845
895.131
894.266
892.96
890.421
885.182
874.596
854.656
820.5
768.128
697.23
613.775
529.913
459.599
411.638
386.442
377.09
374.683
374.333
374.345
374.478
374.68
374.819
374.835
374.792
374.677
374.507
374.324
374.164
374.041
373.946
373.867
373.789
373.706
373.614
373.516
373.415
373.316
373.223
373.138
373.061
372.99
372.914
372.808
372.603
372.102
370.732
366.834
356.134
333.064
307.988
300.428
1653.94
1653.94
1653.94
1653.94
1653.94
1653.94
1653.94
1653.93
1653.92
1653.77
1653.08
1651.07
1646.78
1639.23
1627.64
1611.65
1591.37
1567.35
1540.47
1511.73
1482.12
1452.45
1423.36
1395.3
1368.54
1343.21
1319.36
1296.96
1275.95
1256.26
1237.79
1220.44
1204.13
1188.76
1174.25
1160.53
1147.52
1135.18
1123.43
1112.24
1101.56
1091.34
1081.57
1072.21
1063.23
1054.63
1046.4
1038.52
1031.02
1023.91
1017.21
1010.96
1005.21
999.969
995.264
991.059
987.254
983.774
980.513
977.538
974.815
972.238
969.74
967.3
964.915
962.587
960.319
958.111
955.964
953.876
951.847
949.874
947.953
946.084
944.264
942.49
940.76
939.072
937.423
935.813
934.239
932.7
931.194
929.721
928.279
926.869
925.489
924.138
922.815
921.517
920.245
918.996
917.772
916.57
915.392
914.236
913.101
911.988
910.896
909.823
908.768
907.731
906.712
905.712
904.729
903.764
902.816
901.879
900.949
900.019
899.093
898.188
897.334
896.556
895.845
895.131
894.266
892.96
890.421
885.182
874.596
854.656
820.499
768.127
697.229
613.774
529.912
459.599
411.638
386.442
377.09
374.683
374.333
374.345
374.478
374.68
374.819
374.835
374.793
374.677
374.507
374.324
374.164
374.041
373.946
373.867
373.789
373.706
373.614
373.516
373.415
373.316
373.223
373.138
373.061
372.99
372.914
372.808
372.603
372.102
370.732
366.834
356.134
333.064
307.989
300.428
1641.72
1641.72
1641.72
1641.72
1641.72
1641.71
1641.71
1641.71
1641.7
1641.56
1640.89
1638.97
1634.87
1627.64
1616.54
1601.21
1581.73
1558.61
1532.66
1504.83
1476.06
1447.16
1418.75
1391.27
1364.99
1340.08
1316.57
1294.46
1273.7
1254.21
1235.91
1218.71
1202.53
1187.27
1172.86
1159.22
1146.29
1134.02
1122.33
1111.2
1100.57
1090.4
1080.67
1071.35
1062.42
1053.85
1045.65
1037.81
1030.34
1023.26
1016.59
1010.37
1004.64
999.425
994.744
990.563
986.784
983.319
980.077
977.127
974.423
971.863
969.383
966.961
964.593
962.281
960.029
957.837
955.705
953.632
951.617
949.657
947.75
945.893
944.085
942.323
940.604
938.927
937.289
935.688
934.123
932.593
931.096
929.631
928.197
926.793
925.42
924.076
922.758
921.466
920.199
918.955
917.735
916.538
915.363
914.21
913.079
911.969
910.879
909.808
908.755
907.72
906.703
905.704
904.722
903.759
902.811
901.875
900.945
900.016
899.091
898.186
897.332
896.555
895.844
895.13
894.265
892.959
890.42
885.182
874.596
854.655
820.499
768.126
697.228
613.773
529.912
459.599
411.638
386.442
377.09
374.683
374.333
374.345
374.478
374.68
374.819
374.835
374.793
374.677
374.507
374.324
374.164
374.041
373.946
373.867
373.789
373.706
373.614
373.516
373.415
373.316
373.223
373.138
373.061
372.99
372.914
372.808
372.603
372.102
370.732
366.834
356.134
333.064
307.989
300.428
1624.88
1624.88
1624.88
1624.88
1624.88
1624.88
1624.88
1624.88
1624.87
1624.74
1624.11
1622.3
1618.44
1611.65
1601.21
1586.77
1568.37
1546.46
1521.77
1495.2
1467.61
1439.78
1412.31
1385.64
1360.05
1335.72
1312.7
1291
1270.58
1251.38
1233.33
1216.34
1200.33
1185.22
1170.95
1157.43
1144.6
1132.42
1120.82
1109.76
1099.19
1089.09
1079.42
1070.15
1061.26
1052.74
1044.59
1036.79
1029.36
1022.31
1015.67
1009.49
1003.79
998.603
993.952
989.797
986.05
982.602
979.386
976.465
973.783
971.245
968.787
966.386
964.04
961.749
959.517
957.345
955.232
953.178
951.182
949.24
947.351
945.511
943.72
941.974
940.272
938.61
936.987
935.401
933.851
932.335
930.851
929.4
927.979
926.588
925.227
923.894
922.588
921.307
920.05
918.816
917.606
916.418
915.252
914.108
912.985
911.882
910.799
909.735
908.689
907.66
906.648
905.654
904.678
903.718
902.775
901.843
900.916
899.99
899.068
898.166
897.315
896.539
895.83
895.118
894.255
892.952
890.414
885.177
874.592
854.653
820.497
768.125
697.227
613.772
529.911
459.598
411.638
386.442
377.09
374.683
374.333
374.345
374.478
374.68
374.819
374.835
374.793
374.677
374.507
374.324
374.164
374.041
373.946
373.867
373.789
373.706
373.614
373.516
373.415
373.316
373.223
373.138
373.061
372.99
372.914
372.808
372.603
372.102
370.732
366.834
356.134
333.064
307.989
300.428
1603.59
1603.59
1603.59
1603.59
1603.59
1603.59
1603.59
1603.58
1603.57
1603.45
1602.87
1601.2
1597.63
1591.37
1581.73
1568.37
1551.29
1530.88
1507.77
1482.77
1456.67
1430.2
1403.93
1378.31
1353.63
1330.05
1307.67
1286.51
1266.54
1247.72
1229.99
1213.27
1197.5
1182.59
1168.49
1155.12
1142.43
1130.36
1118.87
1107.9
1097.42
1087.39
1077.79
1068.58
1059.76
1051.29
1043.18
1035.43
1028.05
1021.04
1014.45
1008.3
1002.63
997.484
992.867
988.742
985.027
981.6
978.414
975.524
972.868
970.355
967.921
965.545
963.223
960.956
958.747
956.598
954.507
952.476
950.5
948.58
946.711
944.893
943.122
941.396
939.712
938.07
936.466
934.899
933.366
931.868
930.402
928.968
927.564
926.189
924.845
923.528
922.237
920.972
919.73
918.511
917.315
916.141
914.989
913.858
912.747
911.657
910.587
909.535
908.5
907.482
906.481
905.497
904.531
903.581
902.647
901.724
900.805
899.887
898.973
898.079
897.234
896.465
895.764
895.059
894.203
892.907
890.375
885.145
874.567
854.635
820.486
768.119
697.224
613.771
529.911
459.598
411.638
386.442
377.09
374.683
374.333
374.345
374.478
374.68
374.819
374.835
374.793
374.677
374.507
374.324
374.164
374.041
373.946
373.867
373.789
373.706
373.614
373.516
373.415
373.316
373.223
373.138
373.061
372.99
372.914
372.808
372.603
372.102
370.732
366.834
356.134
333.064
307.989
300.428
1578.44
1578.44
1578.44
1578.44
1578.44
1578.44
1578.44
1578.44
1578.43
1578.32
1577.79
1576.27
1573.03
1567.35
1558.61
1546.46
1530.88
1512.17
1490.88
1467.69
1443.34
1418.48
1393.66
1369.31
1345.71
1323.07
1301.47
1280.98
1261.57
1243.23
1225.89
1209.52
1194.03
1179.38
1165.49
1152.3
1139.78
1127.85
1116.48
1105.62
1095.25
1085.31
1075.79
1066.66
1057.9
1049.5
1041.45
1033.76
1026.42
1019.46
1012.91
1006.8
1001.18
996.068
991.487
987.398
983.712
980.306
977.156
974.299
971.67
969.183
966.776
964.426
962.129
959.888
957.704
955.579
953.513
951.504
949.553
947.655
945.809
944.013
942.264
940.559
938.898
937.276
935.693
934.147
932.635
931.157
929.711
928.296
926.911
925.556
924.23
922.932
921.66
920.412
919.188
917.987
916.808
915.652
914.517
913.402
912.309
911.235
910.18
909.144
908.124
907.122
906.135
905.166
904.214
903.278
902.357
901.448
900.543
899.638
898.737
897.856
897.025
896.27
895.583
894.894
894.052
892.775
890.256
885.044
874.485
854.571
820.44
768.09
697.208
613.764
529.909
459.598
411.638
386.442
377.091
374.683
374.333
374.345
374.478
374.68
374.819
374.835
374.793
374.677
374.507
374.324
374.164
374.041
373.946
373.867
373.789
373.706
373.614
373.516
373.415
373.316
373.223
373.138
373.061
372.99
372.914
372.808
372.603
372.102
370.732
366.834
356.134
333.065
307.989
300.428
1550.4
1550.4
1550.4
1550.4
1550.4
1550.4
1550.4
1550.4
1550.39
1550.29
1549.81
1548.45
1545.55
1540.47
1532.66
1521.77
1507.77
1490.88
1471.53
1450.33
1427.9
1404.84
1381.64
1358.73
1336.39
1314.82
1294.15
1274.43
1255.69
1237.91
1221.05
1205.08
1189.94
1175.58
1161.95
1148.99
1136.66
1124.9
1113.68
1102.96
1092.7
1082.87
1073.44
1064.4
1055.72
1047.39
1039.41
1031.77
1024.49
1017.58
1011.08
1005.02
999.437
994.368
989.825
985.774
982.119
978.735
975.619
972.796
970.197
967.737
965.357
963.034
960.763
958.547
956.388
954.288
952.247
950.263
948.335
946.461
944.639
942.865
941.139
939.457
937.818
936.218
934.657
933.132
931.641
930.184
928.759
927.365
926.001
924.666
923.36
922.082
920.83
919.602
918.398
917.216
916.056
914.919
913.802
912.707
911.632
910.576
909.539
908.52
907.519
906.533
905.565
904.612
903.677
902.758
901.855
900.963
900.075
899.189
898.306
897.445
896.635
895.9
895.235
894.572
893.754
892.505
890.013
884.832
874.304
854.422
820.323
768.006
697.155
613.737
529.898
459.595
411.637
386.442
377.091
374.683
374.333
374.345
374.478
374.68
374.819
374.835
374.793
374.677
374.507
374.324
374.164
374.041
373.946
373.867
373.789
373.706
373.614
373.516
373.415
373.316
373.223
373.138
373.061
372.99
372.914
372.808
372.603
372.102
370.732
366.834
356.134
333.065
307.989
300.428
1520.53
1520.53
1520.53
1520.53
1520.53
1520.53
1520.53
1520.53
1520.52
1520.43
1520
1518.79
1516.23
1511.73
1504.83
1495.2
1482.77
1467.69
1450.33
1431.17
1410.74
1389.57
1368.12
1346.76
1325.8
1305.43
1285.78
1266.95
1248.96
1231.81
1215.51
1200
1185.26
1171.25
1157.91
1145.21
1133.1
1121.54
1110.49
1099.92
1089.79
1080.08
1070.76
1061.82
1053.23
1044.98
1037.07
1029.5
1022.28
1015.43
1008.98
1002.97
997.432
992.406
987.904
983.891
980.265
976.907
973.826
971.035
968.466
966.032
963.68
961.383
959.139
956.949
954.815
952.74
950.723
948.763
946.859
945.008
943.209
941.458
939.755
938.095
936.477
934.9
933.36
931.856
930.387
928.951
927.547
926.174
924.83
923.516
922.231
920.973
919.741
918.533
917.349
916.186
915.047
913.928
912.831
911.755
910.699
909.662
908.644
907.644
906.661
905.695
904.744
903.811
902.895
901.996
901.113
900.241
899.376
898.512
897.654
896.818
896.034
895.328
894.694
894.065
893.281
892.065
889.615
884.475
873.992
854.154
820.101
767.831
697.03
613.661
529.861
459.582
411.634
386.442
377.091
374.684
374.333
374.345
374.478
374.68
374.819
374.835
374.793
374.677
374.507
374.324
374.164
374.041
373.946
373.867
373.789
373.706
373.614
373.516
373.415
373.316
373.223
373.138
373.061
372.99
372.914
372.808
372.603
372.102
370.732
366.834
356.134
333.065
307.989
300.428
1489.85
1489.85
1489.85
1489.85
1489.85
1489.85
1489.85
1489.85
1489.84
1489.76
1489.38
1488.31
1486.06
1482.12
1476.06
1467.61
1456.67
1443.34
1427.9
1410.74
1392.31
1373.05
1353.38
1333.65
1314.13
1295.03
1276.49
1258.61
1241.45
1225.01
1209.31
1194.33
1180.04
1166.41
1153.41
1140.99
1129.13
1117.79
1106.94
1096.54
1086.56
1076.99
1067.79
1058.95
1050.46
1042.3
1034.47
1026.97
1019.82
1013.03
1006.64
1000.68
995.189
990.208
985.748
981.774
978.177
974.848
971.801
969.041
966.502
964.095
961.769
959.499
957.28
955.115
953.006
950.955
948.962
947.025
945.144
943.316
941.539
939.81
938.128
936.49
934.893
933.337
931.818
930.335
928.886
927.471
926.087
924.734
923.41
922.116
920.85
919.612
918.399
917.211
916.046
914.903
913.782
912.683
911.605
910.548
909.51
908.492
907.493
906.512
905.548
904.6
903.67
902.756
901.861
900.984
900.123
899.276
898.436
897.6
896.771
895.966
895.216
894.546
893.949
893.363
892.624
891.441
889.045
883.956
873.526
853.74
819.741
767.53
696.798
613.503
529.772
459.541
411.621
386.439
377.09
374.684
374.333
374.345
374.478
374.68
374.819
374.835
374.793
374.677
374.507
374.324
374.164
374.041
373.946
373.867
373.789
373.706
373.614
373.516
373.415
373.316
373.223
373.138
373.061
372.99
372.914
372.808
372.603
372.102
370.732
366.834
356.135
333.065
307.989
300.428
1459.22
1459.22
1459.22
1459.22
1459.22
1459.22
1459.22
1459.22
1459.21
1459.14
1458.81
1457.87
1455.89
1452.45
1447.16
1439.78
1430.2
1418.48
1404.84
1389.57
1373.05
1355.66
1337.75
1319.64
1301.59
1283.8
1266.42
1249.55
1233.26
1217.58
1202.53
1188.12
1174.32
1161.11
1148.47
1136.38
1124.8
1113.7
1103.06
1092.85
1083.04
1073.61
1064.55
1055.83
1047.44
1039.38
1031.63
1024.22
1017.14
1010.42
1004.08
998.175
992.736
987.801
983.385
979.45
975.882
972.583
969.571
966.842
964.331
961.952
959.651
957.407
955.212
953.071
950.986
948.958
946.987
945.073
943.214
941.407
939.651
937.944
936.282
934.664
933.088
931.552
930.052
928.589
927.16
925.763
924.398
923.064
921.759
920.484
919.237
918.017
916.823
915.653
914.506
913.381
912.279
911.197
910.137
909.098
908.078
907.078
906.097
905.134
904.189
903.261
902.35
901.458
900.585
899.732
898.897
898.077
897.267
896.462
895.667
894.899
894.189
893.56
893.008
892.471
891.785
890.64
888.299
883.265
872.892
853.162
819.22
767.075
696.424
613.227
529.598
459.45
411.582
386.425
377.088
374.683
374.333
374.345
374.478
374.68
374.819
374.835
374.793
374.677
374.507
374.324
374.164
374.041
373.946
373.867
373.789
373.706
373.614
373.516
373.415
373.316
373.223
373.138
373.062
372.99
372.914
372.808
372.603
372.102
370.732
366.834
356.135
333.065
307.989
300.428
1429.3
1429.3
1429.3
1429.3
1429.3
1429.3
1429.3
1429.3
1429.29
1429.23
1428.94
1428.11
1426.38
1423.36
1418.75
1412.31
1403.93
1393.66
1381.64
1368.12
1353.38
1337.75
1321.54
1305.01
1288.41
1271.93
1255.71
1239.87
1224.49
1209.6
1195.25
1181.43
1168.15
1155.4
1143.15
1131.4
1120.13
1109.29
1098.88
1088.88
1079.25
1069.99
1061.06
1052.47
1044.2
1036.24
1028.59
1021.26
1014.26
1007.61
1001.34
995.484
990.097
985.211
980.84
976.944
973.407
970.139
967.163
964.463
961.979
959.627