/*--------------------------------*- C++ -*----------------------------------*\
  =========                 |
  \\      /  F ield         | OpenFOAM: The Open Source CFD Toolbox
   \\    /   O peration     | Website:  https://openfoam.org
    \\  /    A nd           | Version:  13
     \\/     M anipulation  |
\*---------------------------------------------------------------------------*/
FoamFile
{
    format      ascii;
    class       volVectorField;
    location    "0.0013";
    object      U;
}
// * * * * * * * * * * * * * * * * * * * * * * * * * * * * * * * * * * * * * //

dimensions      [0 1 -1 0 0 0 0];

internalField   nonuniform List<vector> 
33334
(
(-2.35443e-13 -2.70487e-13 0)
(-1.03427e-12 -3.85292e-13 0)
(-1.755e-12 -1.61417e-13 0)
(-1.88746e-12 -1.92579e-13 0)
(2.4644e-13 -1.03065e-13 0)
(4.77307e-09 2.19613e-12 0)
(4.63385e-06 5.35096e-10 0)
(0.000639664 2.41912e-08 0)
(0.0188085 3.37509e-07 0)
(0.179385 2.03333e-06 0)
(0.809461 7.03894e-06 0)
(2.29883 1.71111e-05 0)
(4.91973 3.30752e-05 0)
(8.78106 5.48517e-05 0)
(13.8334 8.17944e-05 0)
(19.8969 0.000112951 0)
(26.712 0.000147268 0)
(33.998 0.00018377 0)
(41.502 0.000221673 0)
(49.0271 0.000260426 0)
(56.44 0.000299658 0)
(63.6648 0.000339114 0)
(70.6689 0.000378585 0)
(77.4486 0.000417906 0)
(84.0174 0.000456994 0)
(90.3972 0.000495844 0)
(96.6127 0.00053448 0)
(102.689 0.000572951 0)
(108.647 0.000611353 0)
(114.51 0.00064982 0)
(120.293 0.000688577 0)
(126.011 0.00072742 0)
(131.679 0.000768641 0)
(137.305 0.000805734 0)
(142.898 0.000840081 0)
(148.467 0.000873916 0)
(154.015 0.000908277 0)
(159.547 0.000942864 0)
(165.066 0.000977623 0)
(170.571 0.00101216 0)
(176.062 0.00104692 0)
(181.535 0.00108223 0)
(186.982 0.00111832 0)
(192.395 0.00115515 0)
(197.756 0.00119255 0)
(203.041 0.00123054 0)
(208.22 0.00126997 0)
(213.247 0.00131011 0)
(218.062 0.00135063 0)
(222.59 0.00139037 0)
(226.735 0.00142865 0)
(230.389 0.00146418 0)
(233.438 0.00149518 0)
(235.782 0.00152032 0)
(237.369 0.00154743 0)
(238.243 0.00166164 0)
(238.547 0.00147754 0)
(238.47 0.00157262 0)
(238.162 0.00156514 0)
(237.561 0.00154265 0)
(236.667 0.00151269 0)
(235.688 0.00150622 0)
(234.749 0.00147603 0)
(233.888 0.00147079 0)
(233.102 0.0013903 0)
(232.376 0.00138483 0)
(231.692 0.00136269 0)
(231.04 0.00134351 0)
(230.412 0.00131523 0)
(229.801 0.00127948 0)
(229.204 0.00130372 0)
(228.618 0.00119946 0)
(228.043 0.00133289 0)
(227.478 0.001007 0)
(226.922 0.00144504 0)
(226.376 0.000778776 0)
(225.841 0.00158014 0)
(225.315 0.000660021 0)
(224.799 0.00139242 0)
(224.294 0.000924499 0)
(223.8 0.000848975 0)
(223.315 0.00133126 0)
(222.839 0.000554059 0)
(222.371 0.00115146 0)
(221.912 0.00096001 0)
(221.458 0.000634168 0)
(221.008 0.00109418 0)
(220.564 0.000763254 0)
(220.126 0.0007924 0)
(219.695 0.000831572 0)
(219.272 0.000755628 0)
(218.857 0.000828209 0)
(218.447 0.000751965 0)
(218.043 0.000461855 0)
(217.644 0.00105813 0)
(217.25 0.000656678 0)
(216.86 0.000260292 0)
(216.475 0.000972147 0)
(216.094 0.000414311 0)
(215.72 0.000841422 0)
(215.351 0.0003308 0)
(214.988 0.000448817 0)
(214.629 0.000474322 0)
(214.275 0.000499588 0)
(213.924 0.0006213 0)
(213.578 0.000246977 0)
(213.235 0.000203564 0)
(212.896 0.000205291 0)
(212.56 0.000451972 0)
(212.228 0.000299753 0)
(211.899 3.14523e-05 0)
(211.575 -1.90186e-05 0)
(211.256 0.00066337 0)
(210.935 0.00164751 0)
(210.617 0.0018396 0)
(210.319 0.000101147 0)
(210.035 -0.00258942 0)
(209.687 -0.00597516 0)
(209.428 -0.00904429 0)
(209.132 -0.0176751 0)
(208.827 -0.0321209 0)
(208.51 -0.0488523 0)
(208.195 -0.0607086 0)
(207.936 -0.06031 0)
(207.832 -0.0462824 0)
(207.914 -0.0240783 0)
(207.962 -0.00173071 0)
(207.752 0.0115116 0)
(206.868 0.011966 0)
(206.34 0.00716256 0)
(206.229 0.00101743 0)
(205.478 0.000178499 0)
(205.163 -0.000455084 0)
(204.909 -0.00117439 0)
(204.615 -0.00166061 0)
(204.328 -0.00192339 0)
(204.057 -0.00198995 0)
(203.757 -0.00193023 0)
(203.476 -0.00182357 0)
(203.208 -0.00172003 0)
(202.944 -0.00163957 0)
(202.683 -0.00158287 0)
(202.425 -0.00154558 0)
(202.173 -0.00152399 0)
(201.925 -0.00151435 0)
(201.681 -0.00151016 0)
(201.438 -0.00150549 0)
(201.198 -0.00149695 0)
(200.96 -0.00148298 0)
(200.725 -0.00146348 0)
(200.494 -0.00143911 0)
(200.269 -0.00141071 0)
(200.051 -0.001379 0)
(199.84 -0.00134478 0)
(199.635 -0.00130956 0)
(199.429 -0.00127617 0)
(199.201 -0.00124601 0)
(198.886 -0.00121419 0)
(198.298 -0.00117408 0)
(196.912 -0.00112489 0)
(193.171 -0.0010677 0)
(182.583 -0.000987834 0)
(153.682 -0.000832232 0)
(90.8753 -0.000526092 0)
(22.1471 -0.000176593 0)
(1.22791 -2.13435e-05 0)
(-2.28209e-13 -1.11304e-12 0)
(-8.61929e-13 -8.86993e-13 0)
(-1.52012e-12 -5.68873e-13 0)
(-1.96437e-12 -5.59081e-13 0)
(5.78746e-13 -2.99239e-13 0)
(4.77289e-09 -2.09806e-13 0)
(4.63409e-06 6.26919e-11 0)
(0.000639691 8.58095e-09 0)
(0.0188092 2.5272e-07 0)
(0.17939 2.31599e-06 0)
(0.80948 9.97316e-06 0)
(2.29888 2.72201e-05 0)
(4.91984 5.60864e-05 0)
(8.78125 9.62137e-05 0)
(13.8338 0.000145514 0)
(19.8975 0.000201049 0)
(26.7127 0.000259875 0)
(33.9991 0.000319665 0)
(41.5034 0.000378982 0)
(49.0289 0.000437224 0)
(56.4423 0.000494321 0)
(63.6677 0.000550365 0)
(70.6723 0.000605359 0)
(77.4527 0.000659445 0)
(84.0223 0.000712999 0)
(90.4028 0.000766402 0)
(96.6192 0.000819992 0)
(102.696 0.000874054 0)
(108.656 0.000928818 0)
(114.519 0.000984243 0)
(120.303 0.00104019 0)
(126.023 0.001096 0)
(131.691 0.00115054 0)
(137.319 0.001206 0)
(142.914 0.00126089 0)
(148.484 0.0013175 0)
(154.034 0.00137746 0)
(159.567 0.00144054 0)
(165.087 0.00150468 0)
(170.594 0.00156853 0)
(176.087 0.00163191 0)
(181.561 0.00169552 0)
(187.011 0.00176044 0)
(192.426 0.0018276 0)
(197.788 0.00189766 0)
(203.076 0.00197134 0)
(208.257 0.00204962 0)
(213.286 0.00213386 0)
(218.104 0.00222563 0)
(222.634 0.00232671 0)
(226.782 0.00243886 0)
(230.439 0.00256346 0)
(233.49 0.00270195 0)
(235.837 0.00285733 0)
(237.427 0.00305218 0)
(238.304 0.0034325 0)
(238.612 0.00298876 0)
(238.537 0.00328662 0)
(238.232 0.00334228 0)
(237.634 0.00350797 0)
(236.744 0.00342209 0)
(235.768 0.00341726 0)
(234.832 0.00342329 0)
(233.974 0.00342468 0)
(233.191 0.00340005 0)
(232.468 0.00338107 0)
(231.787 0.00336388 0)
(231.138 0.00333316 0)
(230.513 0.00328411 0)
(229.905 0.00324009 0)
(229.311 0.00321709 0)
(228.728 0.00320299 0)
(228.156 0.00318899 0)
(227.594 0.00317714 0)
(227.041 0.00317366 0)
(226.498 0.00316763 0)
(225.965 0.0031574 0)
(225.442 0.00314113 0)
(224.93 0.00312454 0)
(224.428 0.0031169 0)
(223.936 0.00309682 0)
(223.454 0.00309668 0)
(222.98 0.00306968 0)
(222.516 0.00307427 0)
(222.059 0.00304455 0)
(221.608 0.00305255 0)
(221.161 0.00301332 0)
(220.72 0.00303236 0)
(220.285 0.00299937 0)
(219.857 0.00301032 0)
(219.437 0.00299473 0)
(219.024 0.00296526 0)
(218.617 0.00298489 0)
(218.216 0.00294778 0)
(217.819 0.00292738 0)
(217.428 0.0029558 0)
(217.041 0.00291869 0)
(216.658 0.00290571 0)
(216.281 0.00288031 0)
(215.909 0.00289046 0)
(215.543 0.00287031 0)
(215.182 0.00286229 0)
(214.826 0.00282551 0)
(214.475 0.00274754 0)
(214.127 0.00270086 0)
(213.783 0.00272158 0)
(213.443 0.00279941 0)
(213.107 0.00285931 0)
(212.774 0.00284088 0)
(212.444 0.0027322 0)
(212.118 0.00264141 0)
(211.797 0.00269596 0)
(211.481 0.00280778 0)
(211.164 0.00280702 0)
(210.848 0.00197357 0)
(210.552 0.000172973 0)
(210.266 -0.00165598 0)
(209.916 -0.0033772 0)
(209.651 -0.0057425 0)
(209.344 -0.0101587 0)
(209.021 -0.0157012 0)
(208.679 -0.0201263 0)
(208.335 -0.0210647 0)
(208.046 -0.0197045 0)
(207.913 -0.0190381 0)
(207.971 -0.0180625 0)
(208.001 -0.014679 0)
(207.784 -0.00899545 0)
(206.904 -0.00260395 0)
(206.381 0.00200055 0)
(206.279 0.000314234 0)
(205.53 0.00033565 0)
(205.216 -0.000222115 0)
(204.963 -0.000830823 0)
(204.668 -0.00139172 0)
(204.379 -0.00181238 0)
(204.106 -0.00197276 0)
(203.804 -0.00194402 0)
(203.522 -0.00184675 0)
(203.251 -0.00175322 0)
(202.986 -0.00168191 0)
(202.722 -0.00163084 0)
(202.463 -0.0015925 0)
(202.209 -0.0015625 0)
(201.96 -0.00153681 0)
(201.713 -0.00151554 0)
(201.469 -0.00150383 0)
(201.227 -0.00149588 0)
(200.987 -0.0014905 0)
(200.75 -0.00148691 0)
(200.518 -0.00148429 0)
(200.291 -0.00148193 0)
(200.072 -0.00147938 0)
(199.859 -0.00147664 0)
(199.652 -0.00147619 0)
(199.444 -0.00148505 0)
(199.214 -0.00150736 0)
(198.897 -0.00153351 0)
(198.308 -0.00155188 0)
(196.919 -0.00156384 0)
(193.177 -0.00157435 0)
(182.587 -0.00155956 0)
(153.685 -0.00141827 0)
(90.8769 -0.000859074 0)
(22.1476 -0.000209385 0)
(1.22795 -1.14659e-05 0)
(-2.40841e-13 -1.87379e-12 0)
(-7.64154e-13 -1.84308e-12 0)
(-1.19778e-12 -1.61194e-12 0)
(-1.37889e-12 -1.25055e-12 0)
(5.5573e-13 -7.56344e-13 0)
(4.77327e-09 -6.56277e-13 0)
(4.63434e-06 6.33029e-11 0)
(0.000639714 8.2281e-09 0)
(0.0188096 2.1892e-07 0)
(0.179393 1.90927e-06 0)
(0.809488 8.15296e-06 0)
(2.2989 2.26615e-05 0)
(4.91986 4.82612e-05 0)
(8.78129 8.60302e-05 0)
(13.8338 0.000135155 0)
(19.8975 0.000193364 0)
(26.7128 0.000257606 0)
(33.9991 0.000324736 0)
(41.5035 0.000392023 0)
(49.0289 0.000457425 0)
(56.4423 0.000519741 0)
(63.6677 0.000578721 0)
(70.6723 0.000635074 0)
(77.4527 0.000689674 0)
(84.0223 0.000743002 0)
(90.4028 0.000795467 0)
(96.6192 0.000847418 0)
(102.696 0.000899138 0)
(108.656 0.000950869 0)
(114.519 0.00100298 0)
(120.303 0.00105565 0)
(126.023 0.00110904 0)
(131.691 0.00116101 0)
(137.319 0.0012138 0)
(142.914 0.00126585 0)
(148.484 0.00131762 0)
(154.034 0.00137155 0)
(159.567 0.00142788 0)
(165.087 0.00148646 0)
(170.594 0.00154671 0)
(176.087 0.00160775 0)
(181.561 0.00166917 0)
(187.011 0.00173128 0)
(192.426 0.00179482 0)
(197.788 0.00186061 0)
(203.076 0.00192963 0)
(208.257 0.00200301 0)
(213.286 0.0020821 0)
(218.104 0.00216819 0)
(222.634 0.00226262 0)
(226.782 0.00236695 0)
(230.438 0.00248436 0)
(233.49 0.00262022 0)
(235.837 0.00277982 0)
(237.427 0.00295676 0)
(238.304 0.00307455 0)
(238.612 0.00319539 0)
(238.537 0.00313591 0)
(238.232 0.00314849 0)
(237.634 0.00328494 0)
(236.743 0.00335562 0)
(235.768 0.00334 0)
(234.831 0.00330735 0)
(233.974 0.00329621 0)
(233.191 0.0032925 0)
(232.467 0.00328043 0)
(231.787 0.00325185 0)
(231.138 0.00322219 0)
(230.512 0.0031867 0)
(229.905 0.00315579 0)
(229.31 0.00314234 0)
(228.728 0.0031148 0)
(228.155 0.00311098 0)
(227.593 0.00308207 0)
(227.041 0.00309287 0)
(226.498 0.00306861 0)
(225.965 0.00306182 0)
(225.442 0.00305573 0)
(224.929 0.00300385 0)
(224.427 0.0030593 0)
(223.935 0.00293887 0)
(223.453 0.00305637 0)
(222.98 0.00289539 0)
(222.516 0.00303223 0)
(222.059 0.0028573 0)
(221.607 0.00302298 0)
(221.161 0.00278534 0)
(220.719 0.00301153 0)
(220.284 0.00280765 0)
(219.856 0.00282725 0)
(219.436 0.00298007 0)
(219.023 0.00267524 0)
(218.617 0.00283745 0)
(218.215 0.00291172 0)
(217.819 0.00261154 0)
(217.427 0.00276504 0)
(217.04 0.00278141 0)
(216.658 0.00274076 0)
(216.28 0.00249847 0)
(215.908 0.00268418 0)
(215.542 0.00270922 0)
(215.182 0.00253517 0)
(214.826 0.00244041 0)
(214.474 0.0024376 0)
(214.126 0.00249233 0)
(213.783 0.00240221 0)
(213.443 0.00233634 0)
(213.106 0.00233353 0)
(212.773 0.00227735 0)
(212.444 0.00206817 0)
(212.118 0.00186117 0)
(211.797 0.00189888 0)
(211.48 0.00202811 0)
(211.163 0.00175529 0)
(210.848 0.000835461 0)
(210.551 -0.000558433 0)
(210.266 -0.00139045 0)
(209.916 -0.00322771 0)
(209.651 -0.00445926 0)
(209.345 -0.00676695 0)
(209.024 -0.00892121 0)
(208.685 -0.00984122 0)
(208.346 -0.009966 0)
(208.061 -0.0102456 0)
(207.931 -0.0109146 0)
(207.99 -0.0136773 0)
(208.019 -0.0165228 0)
(207.799 -0.0155769 0)
(206.914 -0.00990126 0)
(206.386 -0.00600326 0)
(206.28 -0.00318554 0)
(205.53 -0.00241177 0)
(205.216 -0.00208498 0)
(204.963 -0.0020402 0)
(204.667 -0.00204394 0)
(204.379 -0.00200988 0)
(204.106 -0.00197198 0)
(203.804 -0.00189614 0)
(203.521 -0.00179997 0)
(203.251 -0.00172466 0)
(202.985 -0.00166975 0)
(202.722 -0.00162553 0)
(202.463 -0.0015862 0)
(202.209 -0.00155065 0)
(201.959 -0.00152037 0)
(201.713 -0.00149681 0)
(201.469 -0.00147648 0)
(201.226 -0.00146155 0)
(200.987 -0.00145032 0)
(200.75 -0.00144194 0)
(200.517 -0.00143571 0)
(200.291 -0.0014308 0)
(200.071 -0.00142668 0)
(199.858 -0.00142419 0)
(199.651 -0.00142611 0)
(199.444 -0.00143445 0)
(199.214 -0.00144725 0)
(198.896 -0.00146289 0)
(198.307 -0.00148491 0)
(196.919 -0.00151142 0)
(193.177 -0.00150811 0)
(182.587 -0.00140286 0)
(153.685 -0.00109447 0)
(90.8773 -0.000635497 0)
(22.1479 -0.000164327 0)
(1.22798 -1.00895e-05 0)
(-2.5012e-13 -1.9443e-12 0)
(-7.27321e-13 -2.02382e-12 0)
(-8.86719e-13 -1.67696e-12 0)
(-1.19581e-12 -1.50733e-12 0)
(8.68398e-13 -1.27005e-12 0)
(4.77362e-09 -1.38186e-12 0)
(4.63455e-06 4.22963e-11 0)
(0.000639735 6.57598e-09 0)
(0.01881 1.83437e-07 0)
(0.179395 1.6493e-06 0)
(0.809497 7.18408e-06 0)
(2.29892 2.02266e-05 0)
(4.91989 4.34997e-05 0)
(8.78132 7.82136e-05 0)
(13.8339 0.000123862 0)
(19.8976 0.000178569 0)
(26.7128 0.000239679 0)
(33.9991 0.000304389 0)
(41.5035 0.000370262 0)
(49.029 0.000435524 0)
(56.4424 0.000499097 0)
(63.6677 0.000560422 0)
(70.6724 0.00061922 0)
(77.4528 0.000675579 0)
(84.0223 0.00072996 0)
(90.4029 0.000782805 0)
(96.6192 0.000834537 0)
(102.696 0.000885549 0)
(108.656 0.000936092 0)
(114.519 0.00098648 0)
(120.303 0.00103693 0)
(126.023 0.00108788 0)
(131.691 0.00114003 0)
(137.319 0.00119229 0)
(142.914 0.001245 0)
(148.484 0.00129729 0)
(154.034 0.0013488 0)
(159.567 0.00140114 0)
(165.087 0.00145579 0)
(170.594 0.00151294 0)
(176.087 0.00157212 0)
(181.561 0.00163276 0)
(187.011 0.00169461 0)
(192.426 0.00175779 0)
(197.788 0.00182308 0)
(203.076 0.00189147 0)
(208.257 0.00196416 0)
(213.286 0.00204268 0)
(218.104 0.00212851 0)
(222.634 0.00222311 0)
(226.782 0.00232793 0)
(230.438 0.00244488 0)
(233.49 0.00257696 0)
(235.837 0.0027273 0)
(237.427 0.00288809 0)
(238.304 0.00301225 0)
(238.612 0.00315473 0)
(238.537 0.00311964 0)
(238.232 0.00311069 0)
(237.633 0.00316011 0)
(236.743 0.00325184 0)
(235.767 0.00328956 0)
(234.831 0.00326625 0)
(233.973 0.00322076 0)
(233.191 0.00320912 0)
(232.467 0.00320308 0)
(231.786 0.00317955 0)
(231.138 0.00315321 0)
(230.512 0.00312226 0)
(229.904 0.00309471 0)
(229.31 0.00308336 0)
(228.727 0.0030494 0)
(228.155 0.0030505 0)
(227.593 0.00301331 0)
(227.04 0.00302917 0)
(226.497 0.00299546 0)
(225.964 0.00298948 0)
(225.441 0.0029867 0)
(224.929 0.00291925 0)
(224.427 0.0030013 0)
(223.935 0.00283673 0)
(223.453 0.00300811 0)
(222.98 0.00278171 0)
(222.515 0.0029823 0)
(222.058 0.00273406 0)
(221.607 0.00297951 0)
(221.16 0.00264415 0)
(220.719 0.0029717 0)
(220.284 0.0026773 0)
(219.856 0.00270879 0)
(219.436 0.00293243 0)
(219.023 0.00250123 0)
(218.616 0.00273216 0)
(218.215 0.00283612 0)
(217.818 0.00242188 0)
(217.427 0.00263582 0)
(217.04 0.00265578 0)
(216.657 0.00259884 0)
(216.28 0.0022791 0)
(215.908 0.00254085 0)
(215.542 0.00256162 0)
(215.181 0.00231718 0)
(214.825 0.00220677 0)
(214.473 0.00223729 0)
(214.126 0.00232182 0)
(213.782 0.00217137 0)
(213.442 0.00203785 0)
(213.105 0.00199896 0)
(212.772 0.00193012 0)
(212.443 0.00168087 0)
(212.117 0.00140103 0)
(211.796 0.00131553 0)
(211.479 0.00138994 0)
(211.162 0.00115421 0)
(210.846 0.000240485 0)
(210.55 -0.00107341 0)
(210.265 -0.00187047 0)
(209.915 -0.0032225 0)
(209.651 -0.00379268 0)
(209.345 -0.00512432 0)
(209.026 -0.00652582 0)
(208.689 -0.00789456 0)
(208.351 -0.00911034 0)
(208.068 -0.0100469 0)
(207.94 -0.0112862 0)
(208.001 -0.0130454 0)
(208.03 -0.01447 0)
(207.808 -0.0139545 0)
(206.92 -0.0101809 0)
(206.389 -0.00725861 0)
(206.282 -0.00391167 0)
(205.531 -0.00320854 0)
(205.216 -0.00291266 0)
(204.962 -0.00264645 0)
(204.667 -0.00240041 0)
(204.378 -0.0021608 0)
(204.105 -0.00202816 0)
(203.803 -0.00192182 0)
(203.521 -0.00181956 0)
(203.25 -0.00174206 0)
(202.985 -0.00168399 0)
(202.721 -0.00163548 0)
(202.462 -0.00159249 0)
(202.208 -0.0015554 0)
(201.959 -0.0015249 0)
(201.712 -0.00149873 0)
(201.468 -0.0014737 0)
(201.226 -0.00145197 0)
(200.986 -0.00143538 0)
(200.749 -0.00142321 0)
(200.517 -0.00141382 0)
(200.291 -0.0014064 0)
(200.071 -0.00140101 0)
(199.858 -0.00139888 0)
(199.651 -0.00140224 0)
(199.443 -0.00141292 0)
(199.214 -0.00143034 0)
(198.896 -0.00144986 0)
(198.307 -0.00146209 0)
(196.919 -0.00145355 0)
(193.177 -0.001418 0)
(182.587 -0.0013315 0)
(153.685 -0.00110403 0)
(90.8778 -0.000648739 0)
(22.1482 -0.000163805 0)
(1.22801 -9.77237e-06 0)
(-8.69625e-14 9.92722e-14 0)
(-5.41899e-13 2.02178e-13 0)
(-9.26716e-13 -5.70183e-14 0)
(-8.46177e-13 1.22954e-13 0)
(8.16335e-13 6.05177e-15 0)
(4.77378e-09 4.15245e-13 0)
(4.63473e-06 4.71794e-11 0)
(0.000639752 4.36727e-09 0)
(0.0188104 1.31749e-07 0)
(0.179398 1.31474e-06 0)
(0.809505 6.00278e-06 0)
(2.29893 1.72189e-05 0)
(4.91992 3.74297e-05 0)
(8.78136 6.79702e-05 0)
(13.8339 0.00010893 0)
(19.8976 0.000158987 0)
(26.7129 0.000215888 0)
(33.9992 0.00027721 0)
(41.5036 0.000340664 0)
(49.029 0.000404345 0)
(56.4424 0.000467 0)
(63.6678 0.000527938 0)
(70.6724 0.000586875 0)
(77.4528 0.000643678 0)
(84.0223 0.000698477 0)
(90.4029 0.000751615 0)
(96.6192 0.000803451 0)
(102.696 0.000854379 0)
(108.656 0.000904774 0)
(114.519 0.000954846 0)
(120.303 0.00100479 0)
(126.023 0.00105474 0)
(131.691 0.00110552 0)
(137.319 0.0011561 0)
(142.914 0.00120684 0)
(148.484 0.00125763 0)
(154.034 0.00130793 0)
(159.567 0.00135821 0)
(165.087 0.00140948 0)
(170.594 0.00146262 0)
(176.087 0.00151786 0)
(181.561 0.00157501 0)
(187.011 0.00163373 0)
(192.426 0.00169419 0)
(197.788 0.00175678 0)
(203.076 0.00182218 0)
(208.257 0.00189131 0)
(213.286 0.00196527 0)
(218.104 0.00204543 0)
(222.634 0.00213334 0)
(226.782 0.00223065 0)
(230.438 0.00234069 0)
(233.49 0.00246675 0)
(235.837 0.00260869 0)
(237.427 0.00275348 0)
(238.304 0.0028927 0)
(238.611 0.00303749 0)
(238.537 0.00306977 0)
(238.232 0.00308329 0)
(237.633 0.00308618 0)
(236.743 0.00312496 0)
(235.767 0.00319215 0)
(234.831 0.00321556 0)
(233.973 0.00318503 0)
(233.19 0.00315721 0)
(232.467 0.00313476 0)
(231.786 0.00310864 0)
(231.137 0.00308861 0)
(230.512 0.00306621 0)
(229.904 0.00304281 0)
(229.31 0.00303533 0)
(228.727 0.00299922 0)
(228.155 0.00300497 0)
(227.592 0.00296133 0)
(227.04 0.00297905 0)
(226.497 0.00293823 0)
(225.964 0.00293085 0)
(225.441 0.00293136 0)
(224.929 0.00285163 0)
(224.427 0.0029518 0)
(223.935 0.00275725 0)
(223.452 0.00296354 0)
(222.979 0.00269158 0)
(222.515 0.00294017 0)
(222.058 0.00263263 0)
(221.607 0.00293993 0)
(221.16 0.00252944 0)
(220.719 0.00292713 0)
(220.283 0.00257282 0)
(219.855 0.00261472 0)
(219.435 0.00287626 0)
(219.022 0.0023631 0)
(218.616 0.00264507 0)
(218.214 0.00275678 0)
(217.818 0.00227181 0)
(217.426 0.00253115 0)
(217.039 0.00253909 0)
(216.657 0.00247144 0)
(216.279 0.00210469 0)
(215.907 0.00241326 0)
(215.541 0.00241759 0)
(215.181 0.00212756 0)
(214.825 0.00200659 0)
(214.473 0.00204821 0)
(214.125 0.00213771 0)
(213.781 0.00194264 0)
(213.442 0.00175808 0)
(213.105 0.00167369 0)
(212.772 0.00158143 0)
(212.442 0.00132677 0)
(212.117 0.0010397 0)
(211.796 0.000877577 0)
(211.479 0.000796074 0)
(211.161 0.000481389 0)
(210.846 -0.000392363 0)
(210.549 -0.00151997 0)
(210.264 -0.00236305 0)
(209.914 -0.00326424 0)
(209.65 -0.00369072 0)
(209.345 -0.00495815 0)
(209.026 -0.00640959 0)
(208.69 -0.00762192 0)
(208.352 -0.00833841 0)
(208.07 -0.00872307 0)
(207.943 -0.00966124 0)
(208.004 -0.0113924 0)
(208.033 -0.0126946 0)
(207.811 -0.0114896 0)
(206.922 -0.00884641 0)
(206.391 -0.00668259 0)
(206.283 -0.00403158 0)
(205.531 -0.00354851 0)
(205.216 -0.00327856 0)
(204.962 -0.00294678 0)
(204.667 -0.00262154 0)
(204.378 -0.00232434 0)
(204.105 -0.00212333 0)
(203.803 -0.00197875 0)
(203.52 -0.00186004 0)
(203.25 -0.00177213 0)
(202.985 -0.00170625 0)
(202.721 -0.0016519 0)
(202.462 -0.00160358 0)
(202.208 -0.00156154 0)
(201.959 -0.00152556 0)
(201.712 -0.00149481 0)
(201.468 -0.00147107 0)
(201.226 -0.00145334 0)
(200.986 -0.00143864 0)
(200.749 -0.00142625 0)
(200.517 -0.00141621 0)
(200.29 -0.00140875 0)
(200.071 -0.00140401 0)
(199.858 -0.00140229 0)
(199.651 -0.00140356 0)
(199.443 -0.00140629 0)
(199.214 -0.00140828 0)
(198.896 -0.00140744 0)
(198.307 -0.0014024 0)
(196.919 -0.00139162 0)
(193.177 -0.00136374 0)
(182.587 -0.00128413 0)
(153.685 -0.00107552 0)
(90.8784 -0.000639923 0)
(22.1485 -0.000162945 0)
(1.22804 -9.74501e-06 0)
(2.73537e-12 4.77269e-09 0)
(-3.90794e-13 4.77319e-09 0)
(-5.78143e-13 4.77369e-09 0)
(-1.01034e-12 4.77402e-09 0)
(1.23136e-13 4.7732e-09 0)
(4.77595e-09 4.77546e-09 0)
(4.6349e-06 4.82133e-09 0)
(0.000639769 1.08499e-08 0)
(0.0188107 1.41969e-07 0)
(0.1794 9.79942e-07 0)
(0.809511 4.25558e-06 0)
(2.29895 1.28824e-05 0)
(4.91994 2.9539e-05 0)
(8.7814 5.57309e-05 0)
(13.8339 9.16389e-05 0)
(19.8977 0.000136232 0)
(26.713 0.000187741 0)
(33.9993 0.000244107 0)
(41.5036 0.000303258 0)
(49.0291 0.000363216 0)
(56.4425 0.000422853 0)
(63.6678 0.000481549 0)
(70.6725 0.000538908 0)
(77.4529 0.000594533 0)
(84.0224 0.000648633 0)
(90.4029 0.000701465 0)
(96.6193 0.000753243 0)
(102.696 0.000804179 0)
(108.656 0.000854526 0)
(114.519 0.000904557 0)
(120.303 0.000954367 0)
(126.023 0.00100408 0)
(131.691 0.0010543 0)
(137.319 0.0011046 0)
(142.914 0.00115538 0)
(148.484 0.00120646 0)
(154.034 0.00125723 0)
(159.567 0.00130772 0)
(165.087 0.00135876 0)
(170.594 0.00141101 0)
(176.087 0.00146503 0)
(181.561 0.00152129 0)
(187.011 0.00157958 0)
(192.426 0.00164008 0)
(197.788 0.00170325 0)
(203.076 0.00176951 0)
(208.257 0.0018401 0)
(213.286 0.00191578 0)
(218.104 0.00199779 0)
(222.634 0.00208729 0)
(226.782 0.00218579 0)
(230.439 0.00229505 0)
(233.49 0.00241686 0)
(235.837 0.00255189 0)
(237.427 0.00269098 0)
(238.304 0.00281803 0)
(238.611 0.00294461 0)
(238.537 0.0029891 0)
(238.232 0.00302221 0)
(237.633 0.00302158 0)
(236.743 0.0030194 0)
(235.767 0.00306028 0)
(234.831 0.00310965 0)
(233.973 0.00311667 0)
(233.19 0.00309744 0)
(232.467 0.00306923 0)
(231.786 0.00303749 0)
(231.137 0.0030161 0)
(230.512 0.00299779 0)
(229.904 0.00297676 0)
(229.31 0.00297301 0)
(228.727 0.00293685 0)
(228.155 0.00294687 0)
(227.592 0.00289858 0)
(227.04 0.00291641 0)
(226.497 0.00287095 0)
(225.964 0.00286203 0)
(225.441 0.00286534 0)
(224.928 0.00277754 0)
(224.426 0.00288797 0)
(223.934 0.00267652 0)
(223.452 0.00290304 0)
(222.979 0.00260076 0)
(222.515 0.00288437 0)
(222.058 0.00253006 0)
(221.606 0.00288671 0)
(221.16 0.00241959 0)
(220.718 0.00286713 0)
(220.283 0.00247026 0)
(219.855 0.00252207 0)
(219.435 0.00280205 0)
(219.022 0.00223508 0)
(218.615 0.00255492 0)
(218.214 0.00266268 0)
(217.818 0.0021341 0)
(217.426 0.00242508 0)
(217.039 0.0024151 0)
(216.657 0.00233805 0)
(216.279 0.00194649 0)
(215.907 0.00228232 0)
(215.541 0.00226375 0)
(215.18 0.00194414 0)
(214.825 0.00182002 0)
(214.473 0.00186559 0)
(214.125 0.00194513 0)
(213.781 0.00171435 0)
(213.441 0.00150053 0)
(213.105 0.00138416 0)
(212.772 0.00126147 0)
(212.442 0.000998405 0)
(212.116 0.000729542 0)
(211.795 0.000556575 0)
(211.478 0.000376782 0)
(211.161 -4.35847e-05 0)
(210.845 -0.000900674 0)
(210.548 -0.00191167 0)
(210.263 -0.00270514 0)
(209.913 -0.00339583 0)
(209.649 -0.00384597 0)
(209.344 -0.00451297 0)
(209.025 -0.00570415 0)
(208.689 -0.00693122 0)
(208.352 -0.00774551 0)
(208.07 -0.00833356 0)
(207.943 -0.0092175 0)
(208.004 -0.0102812 0)
(208.033 -0.0105761 0)
(207.811 -0.00941671 0)
(206.923 -0.00760222 0)
(206.391 -0.00578989 0)
(206.283 -0.00398246 0)
(205.532 -0.00367959 0)
(205.217 -0.00342098 0)
(204.963 -0.00307601 0)
(204.667 -0.002751 0)
(204.378 -0.00244909 0)
(204.105 -0.00222005 0)
(203.803 -0.00205493 0)
(203.52 -0.00192226 0)
(203.25 -0.00182227 0)
(202.984 -0.00174642 0)
(202.721 -0.00168509 0)
(202.462 -0.00163252 0)
(202.208 -0.00158603 0)
(201.959 -0.00154463 0)
(201.712 -0.00150871 0)
(201.468 -0.0014773 0)
(201.226 -0.00145022 0)
(200.986 -0.00142836 0)
(200.749 -0.00141121 0)
(200.517 -0.00139763 0)
(200.29 -0.00138734 0)
(200.071 -0.00138001 0)
(199.858 -0.0013754 0)
(199.651 -0.0013731 0)
(199.443 -0.0013725 0)
(199.214 -0.00137197 0)
(198.896 -0.00137057 0)
(198.307 -0.00136858 0)
(196.919 -0.00136483 0)
(193.177 -0.00134579 0)
(182.587 -0.0012715 0)
(153.685 -0.0010633 0)
(90.8789 -0.000629818 0)
(22.1489 -0.000159998 0)
(1.22808 -9.56574e-06 0)
(5.34253e-10 4.63386e-06 0)
(6.12974e-11 4.63409e-06 0)
(6.24105e-11 4.63434e-06 0)
(4.21795e-11 4.63455e-06 0)
(4.75832e-11 4.63473e-06 0)
(4.82124e-09 4.6349e-06 0)
(4.63508e-06 4.63508e-06 0)
(0.000639784 4.64078e-06 0)
(0.018811 4.79279e-06 0)
(0.179402 6.01566e-06 0)
(0.809517 1.00931e-05 0)
(2.29896 1.90106e-05 0)
(4.91996 3.49916e-05 0)
(8.78142 5.9502e-05 0)
(13.834 9.25118e-05 0)
(19.8977 0.000133164 0)
(26.713 0.000180146 0)
(33.9993 0.000231844 0)
(41.5037 0.000286512 0)
(49.0291 0.000342546 0)
(56.4425 0.000398656 0)
(63.6679 0.000454265 0)
(70.6725 0.000509219 0)
(77.4529 0.000562907 0)
(84.0224 0.000615432 0)
(90.403 0.00066686 0)
(96.6193 0.000717559 0)
(102.696 0.000767559 0)
(108.656 0.000816216 0)
(114.519 0.000864749 0)
(120.303 0.00091352 0)
(126.023 0.000962144 0)
(131.692 0.00101031 0)
(137.319 0.0010588 0)
(142.914 0.00110822 0)
(148.484 0.001158 0)
(154.034 0.00120795 0)
(159.567 0.00125768 0)
(165.087 0.00130775 0)
(170.594 0.00135832 0)
(176.087 0.00141006 0)
(181.562 0.00146393 0)
(187.011 0.00151934 0)
(192.426 0.00157728 0)
(197.788 0.00163796 0)
(203.076 0.00170158 0)
(208.257 0.00177006 0)
(213.286 0.00184322 0)
(218.104 0.0019235 0)
(222.634 0.00201094 0)
(226.782 0.00210715 0)
(230.439 0.00221288 0)
(233.49 0.00232918 0)
(235.837 0.00245598 0)
(237.427 0.00258642 0)
(238.304 0.00270901 0)
(238.612 0.00284813 0)
(238.537 0.00290088 0)
(238.232 0.00295254 0)
(237.633 0.00295852 0)
(236.743 0.00294331 0)
(235.767 0.00295984 0)
(234.831 0.00299441 0)
(233.973 0.00302264 0)
(233.19 0.0030212 0)
(232.466 0.00300253 0)
(231.786 0.00297328 0)
(231.137 0.00295015 0)
(230.512 0.00293191 0)
(229.904 0.0029091 0)
(229.31 0.00290615 0)
(228.727 0.00286802 0)
(228.155 0.00288038 0)
(227.592 0.0028279 0)
(227.04 0.00284569 0)
(226.497 0.00279775 0)
(225.964 0.00278794 0)
(225.441 0.00279461 0)
(224.928 0.00270086 0)
(224.426 0.00281785 0)
(223.934 0.00259651 0)
(223.452 0.00283505 0)
(222.979 0.0025108 0)
(222.515 0.00282228 0)
(222.058 0.00242769 0)
(221.606 0.00282695 0)
(221.16 0.00231343 0)
(220.718 0.00279879 0)
(220.283 0.00236964 0)
(219.855 0.00243038 0)
(219.435 0.00272087 0)
(219.022 0.00211601 0)
(218.615 0.00246414 0)
(218.214 0.00256341 0)
(217.818 0.00200772 0)
(217.426 0.00232109 0)
(217.039 0.00229395 0)
(216.657 0.00220844 0)
(216.279 0.00180511 0)
(215.907 0.00215714 0)
(215.541 0.00211501 0)
(215.18 0.00177505 0)
(214.824 0.00165077 0)
(214.473 0.00169943 0)
(214.125 0.00176497 0)
(213.781 0.00150269 0)
(213.441 0.00126856 0)
(213.104 0.00113533 0)
(212.771 0.000994247 0)
(212.442 0.000715849 0)
(212.116 0.000438026 0)
(211.795 0.00025791 0)
(211.478 5.32283e-05 0)
(211.16 -0.000400304 0)
(210.844 -0.00123773 0)
(210.548 -0.00219402 0)
(210.262 -0.00289036 0)
(209.912 -0.00348304 0)
(209.648 -0.00382451 0)
(209.343 -0.00459734 0)
(209.024 -0.00536714 0)
(208.688 -0.00597588 0)
(208.351 -0.00664103 0)
(208.07 -0.00718569 0)
(207.942 -0.00781301 0)
(208.003 -0.00826799 0)
(208.033 -0.00833695 0)
(207.811 -0.00760713 0)
(206.923 -0.00638926 0)
(206.392 -0.00510245 0)
(206.284 -0.00381488 0)
(205.532 -0.00359375 0)
(205.217 -0.00336454 0)
(204.963 -0.00305527 0)
(204.667 -0.00276456 0)
(204.378 -0.00248098 0)
(204.105 -0.00225512 0)
(203.803 -0.00209052 0)
(203.52 -0.00195582 0)
(203.25 -0.0018513 0)
(202.985 -0.00177059 0)
(202.721 -0.00170502 0)
(202.462 -0.00164826 0)
(202.208 -0.0015973 0)
(201.959 -0.00155172 0)
(201.712 -0.00151142 0)
(201.468 -0.00147592 0)
(201.226 -0.00144536 0)
(200.986 -0.00142 0)
(200.749 -0.00139977 0)
(200.517 -0.0013843 0)
(200.29 -0.00137246 0)
(200.071 -0.00136361 0)
(199.858 -0.00135732 0)
(199.651 -0.00135321 0)
(199.443 -0.00135085 0)
(199.214 -0.00134958 0)
(198.896 -0.00134876 0)
(198.307 -0.00134705 0)
(196.919 -0.00133924 0)
(193.177 -0.00131303 0)
(182.587 -0.00123686 0)
(153.686 -0.00103321 0)
(90.8795 -0.00061233 0)
(22.1492 -0.000155692 0)
(1.22811 -9.31517e-06 0)
(2.41907e-08 0.000639664 0)
(8.57989e-09 0.000639691 0)
(8.22527e-09 0.000639714 0)
(6.57505e-09 0.000639735 0)
(4.36777e-09 0.000639752 0)
(1.08534e-08 0.000639769 0)
(4.64079e-06 0.000639784 0)
(0.000639801 0.000639801 0)
(0.0188113 0.00063993 0)
(0.179404 0.000641002 0)
(0.809523 0.00064499 0)
(2.29897 0.000653318 0)
(4.91998 0.000665878 0)
(8.78145 0.000681981 0)
(13.834 0.000700479 0)
(19.8977 0.000719556 0)
(26.713 0.000737457 0)
(33.9994 0.00075185 0)
(41.5037 0.000762445 0)
(49.0292 0.000771358 0)
(56.4426 0.000778692 0)
(63.6679 0.000784848 0)
(70.6726 0.000791791 0)
(77.4529 0.000801633 0)
(84.0225 0.000814793 0)
(90.403 0.00083068 0)
(96.6194 0.000849579 0)
(102.696 0.000872242 0)
(108.656 0.000899419 0)
(114.519 0.00092907 0)
(120.303 0.000960747 0)
(126.023 0.000995672 0)
(131.692 0.00103403 0)
(137.319 0.00107337 0)
(142.914 0.001114 0)
(148.484 0.00115687 0)
(154.034 0.00120093 0)
(159.567 0.00124586 0)
(165.087 0.00129134 0)
(170.594 0.00133772 0)
(176.087 0.00138566 0)
(181.562 0.00143539 0)
(187.011 0.0014867 0)
(192.426 0.00154082 0)
(197.788 0.00159806 0)
(203.077 0.00165836 0)
(208.257 0.00172344 0)
(213.286 0.00179314 0)
(218.104 0.00186979 0)
(222.634 0.00195327 0)
(226.782 0.00204592 0)
(230.439 0.00214705 0)
(233.49 0.00225759 0)
(235.837 0.00237587 0)
(237.428 0.00249735 0)
(238.304 0.00261213 0)
(238.612 0.00275098 0)
(238.537 0.00280894 0)
(238.232 0.00286573 0)
(237.633 0.00290251 0)
(236.743 0.00288329 0)
(235.767 0.00287772 0)
(234.831 0.00290039 0)
(233.973 0.0029257 0)
(233.19 0.00293751 0)
(232.466 0.00292903 0)
(231.786 0.00290359 0)
(231.137 0.00288144 0)
(230.512 0.00286478 0)
(229.904 0.00284023 0)
(229.31 0.00283796 0)
(228.727 0.00279778 0)
(228.155 0.00281235 0)
(227.592 0.00275763 0)
(227.04 0.00277615 0)
(226.497 0.0027285 0)
(225.964 0.00271811 0)
(225.441 0.00272898 0)
(224.928 0.00263162 0)
(224.426 0.00275182 0)
(223.934 0.00252543 0)