/*--------------------------------*- C++ -*----------------------------------*\
  =========                 |
  \\      /  F ield         | OpenFOAM: The Open Source CFD Toolbox
   \\    /   O peration     | Website:  https://openfoam.org
    \\  /    A nd           | Version:  13
     \\/     M anipulation  |
\*---------------------------------------------------------------------------*/
FoamFile
{
    format      ascii;
    class       volVectorField;
    location    "0.0014";
    object      U;
}
// * * * * * * * * * * * * * * * * * * * * * * * * * * * * * * * * * * * * * //

dimensions      [0 1 -1 0 0 0 0];

internalField   nonuniform List<vector> 
33334
(
(181.459 -0.000977112 0)
(147.238 -0.000794362 0)
(75.4935 -0.000451589 0)
(13.1569 -0.000120948 0)
(0.452652 -1.05058e-05 0)
(0.00222776 -2.11408e-07 0)
(1.17625e-06 -6.97871e-10 0)
(1.63701e-10 -1.0765e-13 0)
(-2.60343e-14 1.22498e-13 0)
(-1.14998e-13 2.48484e-13 0)
(-1.18838e-13 1.23465e-13 0)
(7.48564e-14 1.03837e-13 0)
(6.51243e-14 3.91092e-14 0)
(-1.04399e-13 1.711e-13 0)
(-1.30244e-14 1.69075e-13 0)
(-3.37805e-14 1.40011e-13 0)
(-9.28688e-15 1.58719e-13 0)
(-1.24264e-13 1.5352e-13 0)
(-2.43668e-13 1.64506e-13 0)
(1.69723e-14 2.77978e-13 0)
(7.1482e-14 1.89924e-13 0)
(-1.73173e-14 1.90307e-13 0)
(1.22118e-13 2.21144e-13 0)
(1.9041e-13 5.97655e-14 0)
(1.05063e-13 -1.06547e-14 0)
(-3.74301e-14 -1.84904e-14 0)
(-1.57533e-13 8.61016e-14 0)
(-2.38365e-13 7.31522e-14 0)
(-2.3023e-13 1.48162e-13 0)
(-3.41236e-14 1.60101e-13 0)
(1.7339e-13 1.17404e-13 0)
(-1.92846e-13 3.01703e-14 0)
(-4.16989e-13 1.30401e-13 0)
(-3.20787e-13 2.87396e-13 0)
(-8.57503e-14 4.08787e-13 0)
(7.0456e-14 2.0265e-13 0)
(2.63696e-14 2.78309e-13 0)
(2.1787e-13 2.3491e-13 0)
(3.33449e-13 8.99307e-14 0)
(-1.50395e-14 2.30123e-14 0)
(-3.58756e-13 4.29625e-14 0)
(-4.99052e-13 4.44069e-14 0)
(-2.97916e-13 2.51635e-13 0)
(-4.67877e-14 1.76889e-13 0)
(7.12538e-14 3.14853e-13 0)
(2.18874e-13 2.23476e-13 0)
(2.21061e-13 1.46069e-13 0)
(-3.2285e-14 -2.56175e-14 0)
(-1.80861e-13 1.35052e-13 0)
(-2.7887e-13 8.53219e-14 0)
(-2.43721e-13 2.34888e-13 0)
(-6.82313e-14 1.53485e-13 0)
(-9.11426e-14 2.64374e-13 0)
(1.11571e-13 1.87895e-13 0)
(3.60167e-13 5.46459e-14 0)
(1.22811e-13 -1.04784e-13 0)
(-2.15877e-13 5.24231e-14 0)
(-1.85879e-13 1.05888e-13 0)
(-3.07838e-13 1.04497e-13 0)
(-2.8374e-13 1.95621e-13 0)
(-1.10908e-13 1.32106e-13 0)
(-1.17898e-13 1.68698e-13 0)
(1.7014e-13 7.96618e-14 0)
(3.16323e-13 -1.2195e-13 0)
(1.52986e-14 -1.28205e-13 0)
(-3.03196e-13 1.46135e-14 0)
(-2.77954e-13 2.23825e-13 0)
(-3.5044e-14 2.31468e-13 0)
(1.40579e-13 1.66659e-13 0)
(2.39905e-13 1.28115e-13 0)
(1.15871e-13 1.01865e-13 0)
(-6.79862e-14 2.0512e-14 0)
(-1.7458e-13 -1.37847e-13 0)
(-3.39192e-13 -1.14563e-14 0)
(-2.01786e-13 1.25058e-13 0)
(-4.39079e-14 5.98809e-14 0)
(2.5011e-14 1.11695e-13 0)
(4.20494e-14 1.11575e-13 0)
(1.5496e-13 5.05922e-15 0)
(6.8515e-14 -9.36983e-14 0)
(-1.11907e-13 -2.02972e-13 0)
(-2.00039e-13 -6.21364e-14 0)
(-1.3881e-13 -3.11656e-14 0)
(-6.66042e-14 2.82351e-15 0)
(-1.42051e-13 9.17501e-14 0)
(-7.31288e-14 2.70725e-14 0)
(7.27812e-15 1.21821e-13 0)
(1.49476e-13 6.50845e-14 0)
(1.66295e-13 -1.5579e-14 0)
(2.00319e-14 -1.41468e-13 0)
(-1.13589e-13 -3.44203e-14 0)
(-1.91434e-13 -5.71108e-14 0)
(-1.99261e-13 -2.534e-15 0)
(-1.24221e-13 -5.59923e-14 0)
(-7.34343e-14 1.3029e-14 0)
(-4.90767e-14 -9.85709e-15 0)
(9.17048e-14 -2.05076e-14 0)
(2.1323e-15 -1.06197e-13 0)
(-4.83586e-14 1.96713e-13 0)
(4.95804e-14 3.06511e-13 0)
(-1.3617e-14 2.36558e-13 0)
(3.21093e-14 4.74253e-14 0)
(1.33026e-13 8.18843e-14 0)
(2.05064e-14 -1.26356e-13 0)
(-2.36396e-13 3.89451e-14 0)
(-2.61737e-13 2.38297e-14 0)
(-1.29852e-13 2.78557e-13 0)
(-1.64971e-13 3.41325e-13 0)
(-1.73684e-13 3.42521e-13 0)
(-2.71216e-14 4.20892e-13 0)
(1.1299e-13 2.84705e-13 0)
(2.09036e-13 3.67351e-13 0)
(2.23381e-13 1.69427e-13 0)
(2.42858e-13 1.26279e-13 0)
(1.89128e-13 -8.2917e-14 0)
(-1.37123e-13 7.96251e-14 0)
(-2.28354e-13 2.41944e-13 0)
(-1.01377e-13 3.30378e-13 0)
(-7.16397e-14 1.65129e-13 0)
(-3.9397e-14 2.93873e-13 0)
(6.19788e-14 1.86068e-13 0)
(-7.56812e-14 9.56168e-14 0)
(-1.15982e-13 7.26477e-14 0)
(3.15997e-14 1.87764e-13 0)
(-8.86493e-14 1.45954e-13 0)
(-2.13112e-13 2.1835e-13 0)
(-8.09791e-15 1.94844e-13 0)
(-8.17131e-14 1.3865e-13 0)
(-2.32354e-13 1.9782e-13 0)
(-4.08149e-14 1.97798e-13 0)
(-7.88205e-14 -7.92331e-14 0)
(-1.73236e-13 4.4281e-14 0)
(-1.99049e-13 1.27698e-13 0)
(-2.55301e-13 3.44088e-13 0)
(-1.34673e-13 1.79003e-13 0)
(-3.5612e-14 1.40263e-13 0)
(-2.01711e-14 2.2958e-13 0)
(-2.73663e-14 1.40362e-13 0)
(1.87536e-13 2.65112e-13 0)
(3.80997e-13 7.42627e-14 0)
(1.46367e-13 1.62806e-14 0)
(-3.09209e-14 4.44391e-14 0)
(-2.50569e-14 4.99724e-14 0)
(1.64127e-14 -3.05769e-14 0)
(2.20352e-13 1.29839e-14 0)
(2.50156e-13 1.58437e-13 0)
(2.86674e-13 1.31909e-13 0)
(1.27051e-13 -4.17315e-14 0)
(-9.91835e-14 2.39517e-14 0)
(5.42556e-14 1.56862e-13 0)
(2.43053e-13 2.26932e-13 0)
(1.45071e-13 5.52255e-14 0)
(-4.292e-14 1.69404e-13 0)
(-1.16986e-13 6.41555e-14 0)
(-8.64994e-14 1.0523e-13 0)
(-1.6232e-15 -3.00092e-14 0)
(6.1137e-14 2.34889e-14 0)
(-1.06371e-13 8.2992e-14 0)
(-2.48006e-13 3.07767e-13 0)
(-1.65359e-13 2.22256e-13 0)
(-1.85741e-14 3.00933e-13 0)
(9.13294e-14 3.77792e-13 0)
(-3.21742e-14 1.68261e-13 0)
(-1.17013e-14 2.22127e-13 0)
(1.01351e-13 4.7659e-14 0)
(-2.68327e-14 1.6874e-13 0)
(-4.41105e-14 2.44542e-13 0)
(181.463 -0.00156625 0)
(147.24 -0.00136008 0)
(75.4948 -0.000701493 0)
(13.1572 -0.000121303 0)
(0.452668 -4.08491e-06 0)
(0.00222786 -2.05235e-08 0)
(1.17631e-06 -1.17508e-11 0)
(1.6372e-10 1.58642e-13 0)
(1.05999e-13 2.40529e-13 0)
(-2.24564e-13 3.10878e-13 0)
(-3.4349e-13 1.46659e-13 0)
(-4.74722e-14 1.5329e-13 0)
(1.51139e-13 -4.04716e-14 0)
(-1.0567e-14 1.45134e-13 0)
(-1.02296e-13 9.92184e-14 0)
(-9.04178e-14 9.75132e-14 0)
(-1.9447e-15 4.79311e-14 0)
(-1.08444e-13 2.63764e-14 0)
(-7.90791e-14 9.12178e-14 0)
(7.9862e-14 1.34353e-13 0)
(3.78168e-14 5.16134e-14 0)
(8.94679e-14 9.90365e-14 0)
(4.66194e-14 2.68066e-13 0)
(4.97749e-15 9.42792e-14 0)
(7.56919e-14 6.54909e-15 0)
(5.97289e-14 2.23993e-14 0)
(-1.26295e-13 1.76405e-13 0)
(-2.28037e-13 1.79181e-13 0)
(-1.27222e-13 1.63666e-13 0)
(-1.62371e-14 2.96262e-13 0)
(-5.86966e-14 1.41985e-13 0)
(-3.06812e-13 -8.49699e-14 0)
(-2.89432e-13 1.46078e-15 0)
(-1.4647e-13 9.98735e-14 0)
(-1.51692e-13 1.82053e-13 0)
(-1.44428e-14 1.9326e-13 0)
(6.8202e-14 8.95735e-14 0)
(1.1629e-13 1.63254e-13 0)
(2.25174e-13 -8.00234e-15 0)
(-8.66606e-14 -2.32798e-14 0)
(-4.48005e-13 -9.27882e-14 0)
(-2.89968e-13 -1.98634e-14 0)
(-1.64142e-13 1.69375e-13 0)
(-7.50663e-14 4.96122e-14 0)
(4.40149e-14 6.23297e-14 0)
(1.19881e-13 1.02473e-13 0)
(8.36833e-14 -9.41557e-15 0)
(-8.88692e-14 -9.57699e-14 0)
(-2.10949e-13 -2.42971e-14 0)
(-2.5481e-13 -7.22929e-14 0)
(-2.0794e-13 2.25663e-14 0)
(-8.41978e-14 1.04725e-13 0)
(-6.86166e-14 5.36708e-14 0)
(2.95742e-15 1.10027e-13 0)
(1.59749e-13 3.17997e-14 0)
(1.39506e-13 -6.45369e-14 0)
(-5.37006e-14 -4.51453e-14 0)
(-1.57956e-13 1.09813e-13 0)
(-2.03673e-13 2.38453e-14 0)
(-1.731e-13 1.23225e-13 0)
(-9.72732e-14 1.44185e-13 0)
(-2.27718e-13 8.35507e-14 0)
(-3.28764e-16 8.53343e-14 0)
(1.99673e-13 -1.55471e-13 0)
(9.65153e-14 -1.48047e-13 0)
(-1.29851e-13 -1.77398e-13 0)
(-1.87577e-13 4.18675e-15 0)
(-2.74549e-14 2.9569e-14 0)
(3.62762e-14 7.5345e-14 0)
(8.65925e-14 -9.23393e-15 0)
(1.0001e-13 -1.03543e-13 0)
(-9.16641e-14 -9.62843e-14 0)
(-2.01995e-13 -1.0788e-13 0)
(-2.4539e-13 -8.37108e-14 0)
(-1.9852e-13 -8.68881e-14 0)
(-1.30839e-14 -3.0082e-14 0)
(9.60563e-14 -5.20667e-14 0)
(-7.80154e-14 -7.91524e-14 0)
(-1.86271e-14 -1.06564e-13 0)
(-4.99504e-14 -2.7965e-13 0)
(-9.0677e-14 -2.42051e-13 0)
(-1.15222e-13 -2.41223e-13 0)
(-1.27929e-13 -1.32752e-13 0)
(-2.38535e-15 -1.63898e-13 0)
(-1.64047e-13 -1.5393e-13 0)
(-1.01921e-13 -9.49641e-14 0)
(1.07949e-14 -7.30534e-14 0)
(1.03998e-13 -3.86627e-14 0)
(1.48029e-13 -1.711e-13 0)
(5.83041e-14 -2.4967e-13 0)
(-1.07722e-13 -2.90268e-13 0)
(-1.60988e-13 -2.27462e-13 0)
(-1.62079e-13 -8.37788e-14 0)
(-1.36705e-13 -1.86425e-13 0)
(-1.02148e-13 -2.00376e-13 0)
(-1.00785e-13 -1.62999e-13 0)
(4.22515e-15 -1.65583e-13 0)
(1.1698e-13 -1.21667e-13 0)
(1.6886e-13 8.37501e-15 0)
(4.33886e-14 6.19491e-14 0)
(-9.75328e-14 -1.21657e-15 0)
(9.98357e-15 2.91521e-14 0)
(2.25532e-14 -7.38981e-14 0)
(-6.50305e-15 -2.37241e-13 0)
(-1.61154e-13 -1.40954e-13 0)
(-1.73884e-13 3.45929e-14 0)
(-2.84373e-14 9.64199e-14 0)
(-2.04577e-13 1.18854e-13 0)
(-1.11083e-13 1.03515e-13 0)
(-1.18216e-14 2.12691e-13 0)
(1.45953e-13 2.27906e-13 0)
(1.83543e-13 2.16711e-13 0)
(1.17671e-13 1.36247e-13 0)
(1.45379e-13 1.31792e-13 0)
(1.54156e-13 3.84701e-14 0)
(6.88806e-15 7.15638e-14 0)
(-9.25542e-14 1.38357e-13 0)
(-1.72446e-13 1.77422e-13 0)
(-1.05936e-13 7.24629e-14 0)
(-2.44756e-14 1.0411e-13 0)
(-1.09667e-13 7.46765e-14 0)
(-1.33704e-13 -5.00123e-14 0)
(-4.84558e-14 -8.50585e-15 0)
(3.4895e-14 2.15545e-14 0)
(-9.34771e-14 2.30672e-14 0)
(-1.12225e-13 1.50961e-13 0)
(-4.81927e-14 2.00648e-13 0)
(-6.16885e-14 1.05685e-13 0)
(-1.59717e-13 8.40357e-14 0)
(-2.26037e-13 7.39712e-14 0)
(-2.17998e-13 -1.06078e-14 0)
(-1.20924e-13 2.15544e-14 0)
(-6.13747e-14 1.00084e-13 0)
(-2.06289e-13 1.96502e-13 0)
(-2.14315e-13 2.83075e-13 0)
(8.96097e-14 3.17227e-13 0)
(-2.97149e-16 2.75466e-13 0)
(-2.44737e-14 2.82309e-13 0)
(1.15031e-13 2.79876e-13 0)
(1.64394e-13 1.55288e-13 0)
(1.01514e-13 -6.05328e-14 0)
(-4.78381e-15 -4.53695e-14 0)
(-7.01859e-14 -5.18847e-14 0)
(1.58696e-14 3.82268e-15 0)
(3.45673e-13 -5.32946e-15 0)
(3.45671e-13 9.42913e-15 0)
(1.77101e-13 -4.44758e-14 0)
(5.18984e-14 -1.57626e-13 0)
(2.75122e-14 -7.85668e-14 0)
(2.17105e-13 5.24267e-14 0)
(2.43985e-13 4.35256e-14 0)
(1.86817e-13 5.19148e-14 0)
(-4.91503e-14 7.30837e-14 0)
(-1.86633e-13 1.92375e-14 0)
(-1.58131e-13 8.17788e-14 0)
(-5.88726e-14 5.22838e-14 0)
(2.1037e-14 -3.67247e-15 0)
(5.98475e-15 9.25853e-14 0)
(-1.69159e-13 1.35748e-13 0)
(-8.6088e-14 2.133e-13 0)
(1.51484e-13 2.48128e-13 0)
(-3.50889e-14 2.13246e-13 0)
(-1.09395e-13 1.05069e-13 0)
(-5.35709e-14 1.72135e-13 0)
(6.49619e-14 1.2922e-13 0)
(5.74373e-14 1.16413e-13 0)
(-2.39127e-14 1.41161e-13 0)
(181.463 -0.00138111 0)
(147.24 -0.00103381 0)
(75.4953 -0.000530013 0)
(13.1575 -9.89779e-05 0)
(0.452681 -3.80024e-06 0)
(0.00222796 -2.10684e-08 0)
(1.17639e-06 -1.20634e-11 0)
(1.63878e-10 -1.35231e-13 0)
(-1.1623e-14 -3.87138e-14 0)
(-2.90646e-13 -1.28475e-13 0)
(-2.83085e-13 -4.86672e-14 0)
(-9.50022e-14 2.33286e-14 0)
(3.79076e-14 -1.65233e-13 0)
(-4.27536e-15 -2.30614e-13 0)
(-7.33317e-14 -2.26662e-13 0)
(-7.33826e-14 -1.51979e-13 0)
(-5.23469e-14 -1.696e-13 0)
(-8.56102e-14 -1.50382e-13 0)
(-9.42318e-14 7.54382e-15 0)
(1.8072e-14 -8.23587e-14 0)
(9.18913e-14 -1.80205e-13 0)
(2.45955e-13 -7.91646e-14 0)
(9.60859e-14 -1.25427e-13 0)
(-3.95969e-14 -2.18286e-14 0)
(3.3485e-14 4.14554e-14 0)
(8.69975e-14 8.75781e-15 0)
(-4.59434e-14 -1.02829e-13 0)
(-2.85719e-13 -1.38583e-13 0)
(-1.44071e-13 -3.36336e-14 0)
(-3.87817e-14 -6.98658e-14 0)
(-2.1728e-13 -1.95369e-13 0)
(-3.32347e-13 -2.52726e-13 0)
(-2.53944e-13 -1.90814e-13 0)
(-1.2413e-13 -8.70316e-14 0)
(-2.65243e-14 -3.89968e-14 0)
(-2.48677e-14 1.10992e-14 0)
(2.22942e-14 -6.39041e-14 0)
(1.42136e-13 -6.27435e-14 0)
(9.9243e-14 -2.49082e-13 0)
(-1.36196e-13 -2.64824e-13 0)
(-3.83784e-13 -2.51878e-13 0)
(-2.12967e-13 -9.80014e-14 0)
(-1.89349e-13 -1.53277e-13 0)
(-1.36697e-13 -1.26044e-13 0)
(5.85478e-14 -1.06662e-13 0)
(8.11475e-14 -2.74894e-14 0)
(2.31654e-14 -1.7577e-13 0)
(-8.53789e-14 -1.08074e-13 0)
(-1.86484e-13 -1.73084e-13 0)
(-2.29169e-13 -7.31784e-14 0)
(-1.09625e-13 -1.48456e-13 0)
(-8.85496e-14 -7.82525e-14 0)
(-2.39153e-14 -6.33321e-14 0)
(1.09032e-13 1.19338e-13 0)
(3.07522e-14 -4.73638e-15 0)
(2.91322e-14 -5.90805e-14 0)
(1.82941e-14 -1.81384e-13 0)
(-1.33128e-13 -1.10369e-13 0)
(-1.64621e-13 -1.59918e-13 0)
(-1.22391e-13 -5.83267e-14 0)
(-1.5084e-13 -1.7364e-13 0)
(-1.37747e-13 -2.07153e-13 0)
(-6.33513e-14 -1.08379e-13 0)
(2.78594e-14 -2.03364e-13 0)
(-3.97108e-14 -2.48395e-13 0)
(-1.42904e-13 -2.36291e-13 0)
(-5.51845e-14 -2.84491e-13 0)
(1.77859e-14 -2.25752e-13 0)
(3.10051e-14 -2.65777e-13 0)
(2.74459e-15 -2.52287e-13 0)
(5.98949e-14 -2.85337e-13 0)
(1.81215e-14 -1.60822e-13 0)
(-1.38138e-13 -1.97677e-13 0)
(-3.30012e-13 -1.68959e-13 0)
(-1.39553e-13 -2.77239e-13 0)
(1.03495e-14 -2.1363e-13 0)
(-1.56562e-14 -2.82967e-13 0)
(-1.34249e-14 -2.7828e-13 0)
(-1.17152e-13 -2.90991e-13 0)
(-1.00989e-13 -4.06446e-13 0)
(-9.18051e-14 -2.99612e-13 0)
(-9.7394e-14 -3.57782e-13 0)
(-6.03432e-14 -2.50496e-13 0)
(-1.16054e-13 -2.12517e-13 0)
(-9.05066e-14 -2.75549e-13 0)
(-1.5339e-14 -1.51698e-13 0)
(9.04742e-14 -2.07919e-13 0)
(8.59517e-14 -1.47572e-13 0)
(1.62635e-14 -2.25541e-13 0)
(-5.18863e-14 -3.20448e-13 0)
(-9.64132e-14 -3.9491e-13 0)
(-1.44279e-15 -2.03754e-13 0)
(-1.33258e-13 -1.48431e-13 0)
(-2.27871e-13 -1.27559e-13 0)
(-3.38556e-14 -1.0013e-13 0)
(-4.07564e-14 -1.73201e-14 0)
(5.73198e-14 -6.31423e-14 0)
(1.34803e-13 -2.93707e-15 0)
(1.20074e-13 -1.07969e-13 0)
(-1.86699e-14 -2.4893e-13 0)
(1.07124e-15 -1.84116e-13 0)
(3.51958e-14 -1.88994e-13 0)
(-1.14507e-13 -2.23944e-13 0)
(-3.94959e-14 -2.31938e-13 0)
(3.46675e-14 -1.51333e-13 0)
(-6.45778e-14 5.80358e-14 0)
(-9.50466e-14 -3.71743e-14 0)
(-1.2936e-13 -2.87046e-14 0)
(-3.84716e-14 1.064e-13 0)
(1.02205e-13 1.56029e-13 0)
(1.53255e-13 1.26838e-13 0)
(1.32876e-13 1.48284e-13 0)
(1.68923e-13 1.22141e-13 0)
(2.06861e-13 1.71186e-13 0)
(8.88423e-14 1.93465e-13 0)
(-9.56256e-14 2.36666e-14 0)
(-1.26953e-13 9.26369e-14 0)
(-1.74355e-13 7.9717e-14 0)
(-1.42624e-13 1.27536e-14 0)
(-8.98485e-15 6.91142e-16 0)
(-1.16241e-13 4.53482e-14 0)
(-2.02104e-13 7.86263e-15 0)
(-7.96558e-14 -4.07465e-14 0)
(4.71742e-15 -1.66714e-14 0)
(4.03524e-14 5.85366e-14 0)
(-1.72768e-14 9.2623e-14 0)
(-6.77505e-14 6.57398e-14 0)
(-1.69199e-13 -3.31077e-15 0)
(-2.26993e-13 4.61542e-14 0)
(-1.16505e-13 1.3999e-13 0)
(-1.54817e-13 2.07786e-13 0)
(-9.987e-14 1.37143e-13 0)
(-4.83781e-14 1.47464e-13 0)
(-5.99798e-14 2.12773e-13 0)
(-3.49365e-14 5.0266e-13 0)
(-4.2965e-16 5.00459e-13 0)
(-4.10115e-14 3.61213e-13 0)
(-1.52272e-14 3.38497e-13 0)
(6.45278e-14 2.18895e-13 0)
(-9.71621e-15 8.47689e-14 0)
(-1.05892e-13 3.76497e-15 0)
(-5.8512e-14 -6.2013e-14 0)
(-2.70828e-14 -3.01875e-14 0)
(6.81812e-14 -1.33813e-14 0)
(2.58648e-13 -2.91462e-14 0)
(2.1946e-13 -2.75706e-13 0)
(1.51657e-13 -3.01915e-13 0)
(1.0667e-13 -2.43569e-13 0)
(1.29966e-13 -1.70124e-13 0)
(1.92757e-13 -1.83174e-13 0)
(2.92316e-13 -2.44912e-13 0)
(2.40041e-13 -1.78525e-13 0)
(-9.89759e-14 -1.25364e-13 0)
(-1.30054e-13 1.53879e-14 0)
(-5.50216e-14 1.20415e-13 0)
(-1.15229e-13 1.79762e-13 0)
(-8.02075e-15 3.0871e-14 0)
(9.43881e-15 6.55625e-14 0)
(-4.89479e-14 7.84209e-14 0)
(1.65415e-14 3.6179e-13 0)
(-1.18876e-14 2.02743e-13 0)
(-9.69334e-14 1.09456e-13 0)
(-3.8797e-14 7.99486e-14 0)
(4.35412e-14 8.64587e-14 0)
(5.03165e-14 1.09671e-13 0)
(-3.10745e-14 1.29506e-13 0)
(-1.20407e-14 5.89536e-14 0)
(181.463 -0.00132399 0)
(147.241 -0.00105528 0)
(75.4958 -0.000540325 0)
(13.1577 -9.83994e-05 0)
(0.452695 -3.67215e-06 0)
(0.00222807 -1.99184e-08 0)
(1.17647e-06 -1.14731e-11 0)
(1.63899e-10 -5.02298e-13 0)
(-6.59058e-14 -3.71269e-13 0)
(-2.43808e-13 -3.46999e-13 0)
(-2.0088e-13 -2.33338e-13 0)
(-1.88274e-13 -3.28214e-13 0)
(-6.66021e-14 -3.96172e-13 0)
(1.53215e-15 -4.81293e-13 0)
(-1.4297e-14 -3.90281e-13 0)
(-2.72444e-14 -3.43863e-13 0)
(-4.85871e-14 -3.05617e-13 0)
(5.06571e-14 -1.93239e-13 0)
(3.15455e-14 1.44511e-14 0)
(-4.39396e-14 -3.39107e-14 0)
(9.22188e-14 -4.0821e-14 0)
(1.44173e-13 5.028e-14 0)
(4.23289e-14 -1.22728e-13 0)
(1.19604e-13 -1.52351e-13 0)
(3.75685e-14 -1.77688e-13 0)
(-5.44864e-14 -2.42852e-13 0)
(-2.19798e-13 -3.0168e-13 0)
(-1.12811e-13 -2.69217e-13 0)
(-4.80746e-14 -8.07436e-14 0)
(-1.93383e-13 -2.95856e-13 0)
(-1.98119e-13 -3.17429e-13 0)
(-2.48263e-13 -2.61362e-13 0)
(-1.58905e-13 -1.37519e-13 0)
(-3.56939e-14 -3.95978e-14 0)
(-7.56753e-14 1.29535e-14 0)
(-5.69856e-14 -2.82319e-15 0)
(5.35346e-14 2.05445e-14 0)
(-8.05152e-15 -9.89385e-14 0)
(6.19099e-16 -1.83786e-13 0)
(-9.4315e-14 -2.84987e-13 0)
(-2.04471e-13 -1.53948e-13 0)
(-1.7148e-13 -9.83809e-14 0)
(-2.04109e-13 -8.8924e-14 0)
(-3.74309e-14 4.3768e-14 0)
(1.29898e-13 6.8428e-14 0)
(2.15125e-14 7.90963e-14 0)
(-3.73503e-14 1.51225e-15 0)
(-1.11982e-13 -7.34038e-14 0)
(-1.33939e-13 2.27289e-15 0)
(-1.6457e-13 -3.31971e-14 0)
(-2.30375e-13 -1.14749e-14 0)
(-4.38232e-14 -1.24568e-14 0)
(1.11858e-13 7.17884e-14 0)
(2.93698e-14 1.99945e-14 0)
(-3.72081e-14 3.81666e-14 0)
(-4.97984e-14 -6.54953e-14 0)
(-8.57901e-14 -2.05024e-14 0)
(-1.34199e-13 -2.92901e-14 0)
(-9.71168e-14 -2.84562e-14 0)
(-1.86578e-13 -7.74473e-14 0)
(-2.60581e-13 -2.84064e-13 0)
(-4.36127e-14 -1.50158e-13 0)
(-3.17556e-14 -3.29194e-14 0)
(-3.55346e-14 -6.66697e-14 0)
(5.06094e-14 -1.99718e-13 0)
(-1.20846e-13 -8.44388e-14 0)
(-1.72183e-13 -1.83439e-13 0)
(-5.26768e-15 -1.53352e-13 0)
(-3.2805e-14 -2.34732e-13 0)
(2.92658e-14 -1.85107e-13 0)
(1.61627e-13 -1.78461e-13 0)
(1.77267e-14 -2.58943e-13 0)
(-2.02408e-13 -3.63832e-13 0)
(-2.73309e-13 -2.74943e-13 0)
(-1.70498e-13 -1.87106e-13 0)
(5.41079e-15 -1.52333e-13 0)
(2.03039e-14 -1.59358e-13 0)
(-4.36379e-14 -9.113e-14 0)
(-1.36518e-13 -5.1121e-14 0)
(-5.19733e-14 -1.06561e-14 0)
(-2.85921e-14 -4.66138e-14 0)
(-7.1325e-14 -8.41024e-16 0)
(-5.99799e-15 1.05286e-14 0)
(-9.60486e-14 3.01693e-14 0)
(-8.84213e-14 -4.37443e-14 0)
(-1.91651e-14 -7.45322e-14 0)
(3.51215e-14 -1.44956e-14 0)
(9.53521e-14 -2.04683e-14 0)
(-5.25759e-14 -1.16287e-13 0)
(-1.15615e-13 -1.03154e-13 0)
(2.24069e-14 -9.49054e-14 0)
(8.23304e-14 -9.42367e-14 0)
(-1.13461e-13 -5.27525e-14 0)
(-8.62519e-14 1.50817e-13 0)
(3.26182e-14 1.45965e-13 0)
(-7.51794e-14 1.23392e-13 0)
(-9.36505e-15 1.26387e-13 0)
(6.98996e-14 3.56383e-14 0)
(-4.50562e-14 4.63198e-15 0)
(-1.15554e-14 -9.99795e-14 0)
(5.59529e-15 1.02597e-15 0)
(-5.35501e-15 -1.2048e-13 0)
(-5.28075e-14 -1.48181e-13 0)
(5.39575e-15 -9.2126e-14 0)
(9.9025e-14 -1.1639e-14 0)
(2.91292e-15 -5.00314e-14 0)
(-1.06494e-13 4.12585e-14 0)
(-2.94067e-14 2.67847e-14 0)
(7.3805e-14 2.35713e-13 0)
(8.85746e-15 3.05929e-13 0)
(1.13892e-13 3.32894e-13 0)
(1.76929e-13 2.96868e-13 0)
(1.45739e-13 3.04684e-13 0)
(1.39351e-13 1.88987e-13 0)
(-4.39494e-14 8.21568e-14 0)
(-5.13066e-14 1.37817e-13 0)
(-3.77599e-15 1.79773e-13 0)
(-2.44718e-13 2.00802e-13 0)
(-1.49522e-13 2.37905e-13 0)
(1.52697e-14 1.86257e-13 0)
(-9.61086e-14 9.30489e-14 0)
(-2.06517e-13 1.5447e-13 0)
(-1.17614e-13 8.07639e-14 0)
(7.05062e-14 1.69202e-13 0)
(1.35346e-14 1.14704e-13 0)
(-1.38519e-13 9.46181e-14 0)
(-1.21702e-13 9.87824e-14 0)
(-6.8978e-14 8.98921e-14 0)
(-1.57036e-14 1.97426e-13 0)
(-1.07452e-13 2.40014e-13 0)
(-2.58866e-13 2.00857e-13 0)
(-1.7752e-13 2.25943e-13 0)
(2.0874e-14 1.5576e-13 0)
(1.53243e-13 3.08232e-13 0)
(8.12857e-14 3.02951e-13 0)
(-1.52754e-14 3.56803e-13 0)
(-9.86347e-14 3.79474e-13 0)
(-1.31327e-13 2.97629e-13 0)
(-1.20333e-13 2.92921e-13 0)
(-6.68315e-14 1.84959e-13 0)
(-8.44847e-14 1.23625e-13 0)
(-8.21408e-14 4.67894e-14 0)
(-7.39806e-14 8.17003e-14 0)
(-1.36135e-14 1.44609e-14 0)
(1.33416e-13 2.15013e-14 0)
(1.08651e-13 -8.78401e-14 0)
(2.24928e-13 -2.08001e-13 0)
(1.60107e-13 -1.51648e-13 0)
(9.5035e-14 -1.18001e-13 0)
(1.63279e-13 -5.21398e-14 0)
(2.43344e-13 -4.19599e-14 0)
(2.97766e-13 -9.94788e-14 0)
(9.09635e-14 -3.4468e-14 0)
(1.35006e-14 1.53194e-13 0)
(-7.08606e-14 1.06647e-13 0)
(-2.20797e-13 6.02511e-14 0)
(-6.73637e-14 1.15295e-13 0)
(7.13985e-14 -1.90427e-14 0)
(1.56029e-13 1.69303e-13 0)
(1.28419e-13 2.20704e-13 0)
(-7.61149e-14 2.57792e-13 0)
(-1.55691e-13 2.7153e-13 0)
(-1.33625e-13 3.11392e-13 0)
(-2.0785e-14 2.3282e-13 0)
(9.88219e-14 1.96657e-13 0)
(-8.77632e-15 2.4229e-13 0)
(-7.87941e-14 1.80822e-13 0)
(181.463 -0.00127829 0)
(147.241 -0.00103224 0)
(75.4964 -0.000535285 0)
(13.1579 -9.81458e-05 0)
(0.452709 -3.66684e-06 0)
(0.00222817 -1.9833e-08 0)
(1.17654e-06 -1.1466e-11 0)
(1.64045e-10 -4.76206e-13 0)
(2.59899e-14 -2.7015e-13 0)
(-1.70738e-13 -3.80706e-13 0)
(-2.75454e-13 -4.34877e-13 0)
(-2.89247e-13 -3.68254e-13 0)
(-1.09049e-13 -4.23826e-13 0)
(8.24059e-14 -4.13074e-13 0)
(4.3538e-14 -3.33134e-13 0)
(-6.18017e-14 -2.44452e-13 0)
(8.92039e-14 -2.60771e-13 0)
(2.40398e-13 -1.24237e-13 0)
(7.61351e-14 -1.83695e-13 0)
(-3.85031e-14 -1.3113e-13 0)
(1.8249e-13 -9.94577e-14 0)
(1.25894e-13 -1.09416e-13 0)
(-1.07094e-13 -1.71132e-13 0)
(-2.82756e-14 -1.97953e-13 0)
(-6.93447e-14 -2.80512e-13 0)
(-3.57323e-14 -3.96956e-13 0)
(-9.59129e-14 -3.27977e-13 0)
(-3.34095e-14 -1.26709e-13 0)
(-1.01036e-13 -2.43268e-13 0)
(-2.45668e-13 -2.0963e-13 0)
(-1.80202e-13 -1.41032e-13 0)
(-1.70989e-13 -1.20442e-13 0)
(-8.5541e-14 -1.39569e-13 0)
(-4.69811e-15 -1.19772e-13 0)
(5.39392e-15 -1.28812e-13 0)
(-1.24633e-14 -2.14481e-13 0)
(-2.64658e-14 -1.86297e-13 0)
(-1.86865e-14 -2.65695e-13 0)
(-8.66412e-14 -1.91632e-13 0)
(-8.32248e-14 -2.68146e-13 0)
(-1.36893e-13 -1.53043e-13 0)
(-1.00749e-13 -2.07939e-13 0)
(-6.77083e-14 -8.53385e-14 0)
(-6.24018e-14 -1.24771e-13 0)
(9.02124e-14 -1.04128e-13 0)
(2.2742e-14 -1.68946e-13 0)
(-1.50033e-13 -1.1925e-13 0)
(-9.5825e-14 -1.79806e-13 0)
(-1.1002e-13 -9.93494e-14 0)
(-2.15532e-13 -1.64311e-13 0)
(-7.42669e-14 -2.95802e-14 0)
(6.68173e-15 -5.95583e-14 0)
(-1.92595e-14 -2.78653e-14 0)
(1.6059e-14 -1.67373e-13 0)
(-2.85987e-14 -1.04734e-13 0)
(-3.68551e-14 -6.88567e-14 0)
(1.98076e-14 -4.53996e-14 0)
(-1.27585e-13 -1.48999e-13 0)
(-1.62347e-13 -7.43451e-14 0)
(-3.26333e-13 -1.72207e-13 0)
(-2.22119e-13 -1.6487e-13 0)
(8.95067e-14 -1.23354e-14 0)
(2.42188e-14 -1.55563e-13 0)
(-1.52378e-13 -1.20113e-13 0)
(-5.30936e-14 -1.90524e-13 0)
(-7.57629e-14 -1.58059e-13 0)
(-1.59789e-13 -1.69516e-13 0)
(-5.21747e-14 -8.80677e-14 0)
(-3.26501e-14 -2.21581e-13 0)
(7.96674e-15 -1.60312e-13 0)
(1.82307e-14 -3.57707e-13 0)
(-1.26147e-13 -3.76909e-13 0)
(-1.83996e-13 -4.59059e-13 0)
(-1.18225e-13 -3.4441e-13 0)
(-1.78475e-14 -1.55683e-13 0)
(4.27736e-14 -1.19492e-13 0)
(2.64877e-14 -8.59368e-14 0)
(6.44412e-14 -5.90591e-14 0)
(-4.26302e-14 6.79135e-14 0)
(-1.38961e-13 1.8227e-13 0)
(-7.92199e-14 2.21435e-13 0)
(-5.67343e-15 1.66256e-13 0)
(-3.88183e-14 1.13763e-13 0)
(-1.81619e-13 -1.18137e-15 0)
(-2.1759e-13 3.16116e-14 0)
(3.05795e-14 9.23852e-15 0)
(1.56401e-13 4.63376e-14 0)
(1.60526e-14 1.65051e-15 0)
(-3.14098e-14 -1.28487e-13 0)
(-1.23734e-14 -6.41247e-14 0)
(-1.19982e-13 -1.24913e-13 0)
(-1.96046e-15 -1.89253e-13 0)
(5.08744e-14 -1.1819e-13 0)
(-9.27612e-14 -8.6709e-14 0)
(-4.3638e-14 -7.53368e-14 0)
(-2.55179e-14 -1.57249e-13 0)
(-5.43686e-14 -3.29778e-14 0)
(-2.01007e-14 -1.14837e-13 0)
(-2.83608e-15 -1.1661e-13 0)
(2.29896e-14 -1.40213e-13 0)
(6.74285e-15 -8.36192e-14 0)
(-9.93402e-14 -9.07058e-14 0)
(-8.09824e-14 -9.89557e-14 0)
(4.81858e-14 -1.40377e-13 0)
(4.65536e-14 -9.76622e-14 0)
(1.95698e-15 -2.03318e-13 0)
(-4.38051e-14 -1.01475e-13 0)
(2.64461e-14 -1.49403e-13 0)
(1.7849e-13 -2.75352e-14 0)
(1.38426e-13 3.10266e-14 0)
(1.55759e-13 7.61768e-14 0)
(1.19706e-13 9.77133e-14 0)
(5.0379e-14 9.95308e-14 0)
(2.86353e-14 -3.401e-14 0)
(7.39308e-14 -6.47505e-14 0)
(2.13472e-14 3.33267e-14 0)
(-5.96089e-14 1.82072e-14 0)
(-1.35301e-13 1.4218e-13 0)
(-1.42799e-13 9.78553e-14 0)
(-1.2054e-13 9.208e-14 0)
(-1.46067e-13 2.92571e-14 0)
(-1.75533e-13 2.56498e-14 0)
(-6.40566e-14 1.1328e-13 0)
(1.32748e-14 6.04039e-14 0)
(-4.53926e-14 -8.49402e-14 0)
(-6.42021e-14 -7.32226e-16 0)
(-3.52043e-14 1.83868e-14 0)
(-8.4655e-14 1.26484e-13 0)
(-1.13012e-13 2.30794e-15 0)
(-1.22601e-13 -4.173e-14 0)
(-1.80198e-13 -1.57999e-14 0)
(-1.34212e-13 8.61451e-14 0)
(5.54931e-14 1.12378e-13 0)
(1.33551e-13 6.44259e-14 0)
(2.85928e-14 1.10565e-14 0)
(7.26628e-14 -7.73059e-14 0)
(-4.90243e-14 7.73779e-14 0)
(-3.58513e-14 1.1789e-13 0)
(-2.62973e-14 2.64674e-13 0)
(-2.00257e-13 3.12071e-13 0)
(-2.64692e-13 1.64892e-13 0)
(-1.07447e-13 1.61438e-13 0)
(-3.15417e-14 1.37367e-13 0)
(1.63223e-14 2.1349e-13 0)
(1.23603e-13 1.59381e-13 0)
(4.05268e-15 1.22021e-13 0)
(1.16329e-13 7.66923e-14 0)
(2.12638e-13 1.45595e-14 0)
(2.28635e-13 1.62837e-14 0)
(2.77501e-13 6.51782e-14 0)
(2.30544e-13 1.56824e-13 0)
(2.73311e-13 -2.49212e-14 0)
(1.16546e-13 -1.54344e-13 0)
(-3.90185e-14 -3.09396e-14 0)
(-1.38264e-13 -1.57493e-13 0)
(-1.4289e-13 -1.78533e-13 0)
(-4.11547e-14 -3.48847e-14 0)
(1.18197e-13 -4.59186e-14 0)
(1.91901e-13 4.55486e-14 0)
(5.8599e-14 -1.05559e-14 0)
(-9.65515e-15 -6.583e-14 0)
(-1.77211e-14 4.43019e-14 0)
(-5.10426e-14 1.76962e-13 0)
(-4.06545e-14 2.41117e-13 0)
(6.75635e-14 2.15652e-13 0)
(-6.17969e-14 1.64284e-13 0)
(-5.35834e-16 2.18029e-13 0)
(181.463 -0.00126781 0)
(147.241 -0.00102036 0)
(75.497 -0.000526849 0)
(13.1582 -9.64194e-05 0)
(0.452723 -3.60219e-06 0)
(0.00222827 -1.94967e-08 0)
(1.17661e-06 -1.11761e-11 0)
(1.6435e-10 -3.53538e-13 0)
(-1.3806e-13 -1.6587e-13 0)
(-3.83986e-13 -4.53994e-13 0)
(-2.37335e-13 -5.18903e-13 0)
(-1.76288e-13 -3.68185e-13 0)
(-9.51888e-14 -2.43534e-13 0)
(7.89842e-14 -2.30463e-13 0)
(1.4295e-13 -2.45593e-13 0)
(3.75304e-14 -2.22645e-13 0)
(1.00155e-13 -7.07501e-14 0)
(1.44492e-13 -8.32962e-14 0)
(5.68385e-14 -1.93227e-13 0)
(2.58154e-14 -9.49111e-14 0)
(1.20268e-13 -1.79217e-13 0)
(4.57474e-14 -2.92332e-13 0)
(-5.92045e-14 -2.68844e-13 0)
(6.81713e-15 -1.69195e-13 0)
(-1.74764e-13 -3.0353e-13 0)
(-1.3884e-13 -2.84304e-13 0)
(5.92275e-14 -3.18814e-13 0)
(2.3746e-14 -2.55704e-13 0)
(-1.0334e-13 -3.43375e-13 0)
(-1.14326e-13 -2.74356e-13 0)
(-1.09206e-13 -1.47275e-13 0)
(-2.30428e-13 -1.65081e-13 0)
(-1.53146e-13 -2.3195e-13 0)
(1.69672e-14 -3.08514e-13 0)
(-1.44628e-13 -3.4106e-13 0)
(-6.73595e-14 -4.26599e-13 0)
(-3.33566e-14 -4.10207e-13 0)
(-4.7166e-14 -4.50178e-13 0)
(-4.4985e-14 -4.10533e-13 0)
(-6.53559e-14 -4.46956e-13 0)
(-1.04123e-13 -2.89903e-13 0)
(-6.16805e-14 -2.72644e-13 0)
(-6.59393e-14 -2.04562e-13 0)
(-6.05706e-14 -2.42443e-13 0)
(3.5781e-14 -3.25852e-13 0)
(-6.77036e-15 -4.08967e-13 0)
(-1.12273e-13 -3.80613e-13 0)
(-9.68073e-14 -3.00918e-13 0)
(-1.24266e-13 -2.9818e-13 0)
(-8.82026e-14 -2.42529e-13 0)
(-4.19236e-14 -2.29024e-13 0)
(-3.84255e-14 -2.08008e-13 0)
(-6.29009e-14 -2.64834e-13 0)
(-7.71939e-14 -2.71045e-13 0)
(6.34691e-14 -2.42845e-13 0)
(3.01147e-14 -2.17501e-13 0)
(-1.12135e-13 -3.15499e-13 0)
(-1.55129e-13 -3.12019e-13 0)
(-1.50153e-13 -2.66133e-13 0)
(-2.87545e-13 -2.96334e-13 0)
(-9.90173e-14 -1.63157e-13 0)
(-7.20873e-15 -1.73975e-13 0)
(-1.25262e-13 -3.05166e-13 0)
(-7.93063e-14 -3.15802e-13 0)
(1.55274e-14 -2.73907e-13 0)
(-8.98865e-14 -2.65036e-13 0)
(-1.03555e-13 -2.65621e-13 0)
(-8.83984e-14 -1.73949e-13 0)
(-1.02465e-13 -1.82625e-13 0)
(-1.05307e-13 -3.1919e-13 0)
(-5.31223e-14 -4.89264e-13 0)
(-9.14772e-14 -4.1266e-13 0)
(-1.75218e-13 -3.91028e-13 0)
(3.72653e-14 -3.82913e-13 0)
(2.42011e-14 -1.92635e-13 0)
(1.52819e-14 -2.4476e-13 0)
(6.09516e-14 -2.94613e-13 0)
(8.63071e-14 -1.98397e-13 0)
(4.7541e-14 -1.76835e-13 0)
(9.58526e-15 -8.94478e-15 0)
(-9.68497e-14 -4.07533e-14 0)
(-1.40577e-13 -8.45569e-14 0)
(-1.04885e-13 -1.36589e-13 0)
(-1.59335e-13 -1.69681e-13 0)
(-5.99802e-14 -8.55549e-14 0)
(4.09456e-14 -2.57215e-14 0)
(1.61281e-14 -5.89994e-14 0)
(-5.86121e-14 -1.2928e-13 0)
(-8.38258e-14 -1.24052e-13 0)
(-9.87946e-14 -1.76586e-13 0)
(-5.81085e-14 -1.73043e-13 0)
(6.90919e-14 -1.1801e-13 0)
(-1.45337e-14 -2.29217e-13 0)
(-8.77485e-14 -2.95377e-13 0)
(-7.57159e-14 -2.96856e-13 0)
(-2.94667e-14 -3.42936e-13 0)
(2.44551e-14 -3.31028e-13 0)
(-4.86984e-14 -3.80376e-13 0)
(-9.50729e-14 -2.93739e-13 0)
(1.1736e-14 -2.61396e-13 0)
(3.18234e-14 -3.04542e-13 0)
(-6.646e-14 -3.30596e-13 0)
(-5.00957e-14 -2.01079e-13 0)
(6.10411e-14 -9.44393e-14 0)
(1.78183e-14 -2.23745e-13 0)
(-2.47087e-14 -2.34455e-13 0)
(-3.55929e-14 -3.15971e-13 0)
(6.23454e-14 -2.54813e-13 0)
(2.63692e-13 -2.5958e-13 0)
(1.48223e-13 -3.06796e-13 0)
(1.89575e-13 -2.66583e-13 0)
(1.96591e-13 -1.27763e-13 0)
(3.18456e-15 -2.14339e-13 0)
(-6.6674e-14 -1.99234e-13 0)
(2.25362e-14 -1.75927e-13 0)
(3.62228e-14 -1.69504e-13 0)
(8.2262e-14 -9.26909e-14 0)
(-1.13995e-13 1.16436e-14 0)
(-1.73699e-13 -3.73718e-14 0)
(-1.19838e-13 -3.61799e-14 0)
(-2.05294e-13 -1.18619e-13 0)
(-4.90521e-14 -1.13382e-13 0)
(-1.33382e-14 -6.66244e-14 0)
(-1.19562e-13 -9.26858e-14 0)
(-4.68175e-14 -1.20782e-13 0)
(-2.48386e-14 -4.99724e-14 0)
(-5.53596e-14 -4.36408e-14 0)
(-1.14563e-13 2.44219e-14 0)
(-1.82775e-13 -7.67863e-14 0)
(-8.27151e-14 -8.1501e-14 0)
(-1.3436e-13 -1.24652e-13 0)
(-4.85513e-14 -4.42623e-14 0)
(6.48641e-14 -9.14219e-14 0)
(9.97532e-14 -2.20232e-13 0)
(-5.90257e-14 -2.51013e-13 0)
(5.12755e-14 -2.70399e-13 0)
(8.05541e-14 -1.28231e-13 0)
(3.78686e-14 4.33544e-14 0)
(3.87278e-14 1.74384e-14 0)
(-1.6492e-13 1.66549e-13 0)
(-2.52233e-13 2.60884e-13 0)
(-5.29696e-14 2.57539e-13 0)
(2.89459e-14 3.19608e-13 0)
(-8.92665e-15 2.27584e-13 0)
(5.07843e-14 1.27016e-13 0)
(2.59255e-14 4.84875e-14 0)
(8.11592e-14 8.46862e-14 0)
(1.37175e-13 3.72071e-14 0)
(1.71296e-13 1.8057e-13 0)
(2.71275e-13 1.0972e-13 0)
(1.5268e-13 8.31581e-14 0)
(3.39902e-14 -3.78663e-14 0)
(1.91992e-13 -1.79563e-13 0)
(-3.37109e-15 -1.95234e-13 0)
(-2.43215e-13 -1.52e-13 0)
(-1.04967e-13 -2.33405e-13 0)
(5.18517e-14 -2.02705e-13 0)
(1.57419e-13 -1.28707e-13 0)
(1.95011e-13 -1.51823e-13 0)
(-7.8407e-15 -2.10367e-13 0)
(3.64574e-14 -2.72341e-13 0)
(7.64879e-14 -2.66951e-13 0)
(-3.61228e-14 -1.93075e-13 0)
(-2.00352e-14 -1.72957e-14 0)
(6.92246e-14 -3.16308e-14 0)
(1.65526e-14 -5.97894e-14 0)
(3.02402e-14 -2.55714e-14 0)
(181.463 -0.00123425 0)
(147.242 -0.000992615 0)
(75.4976 -0.00051285 0)
(13.1584 -9.39424e-05 0)
(0.452736 -3.51238e-06 0)
(0.00222837 -1.90228e-08 0)
(1.17668e-06 -1.09577e-11 0)
(1.64476e-10 -2.3613e-13 0)
(-2.28228e-13 -3.96769e-13 0)
(-4.79758e-13 -3.12208e-13 0)
(-2.08354e-13 -2.93511e-13 0)
(-3.29153e-14 -2.41802e-13 0)
(-2.82831e-14 -2.11387e-14 0)
(1.88726e-14 -5.30132e-14 0)
(7.09322e-14 -1.07979e-13 0)
(1.56838e-13 -3.00434e-14 0)