/*--------------------------------*- C++ -*----------------------------------*\
  =========                 |
  \\      /  F ield         | OpenFOAM: The Open Source CFD Toolbox
   \\    /   O peration     | Website:  https://openfoam.org
    \\  /    A nd           | Version:  13
     \\/     M anipulation  |
\*---------------------------------------------------------------------------*/
FoamFile
{
    format      ascii;
    class       volScalarField;
    location    "0.0008";
    object      CO2;
}
// * * * * * * * * * * * * * * * * * * * * * * * * * * * * * * * * * * * * * //

dimensions      [];

internalField   nonuniform List<scalar> 
33334
(
0.00460995
0.00460995
0.00460995
0.00460995
0.00460995
0.00460995
0.00460995
0.00460995
0.00460995
0.00460995
0.00460995
0.00460995
0.00460995
0.00460995
0.00460995
0.00460995
0.00460995
0.00460995
0.00460995
0.00460995
0.00460995
0.00460995
0.00460995
0.00460995
0.00460995
0.00460995
0.00460995
0.00460995
0.00460995
0.00460995
0.00460995
0.00460995
0.00460995
0.00460995
0.00460995
0.00460995
0.00460995
0.00460995
0.00460995
0.00460995
0.00460995
0.00460995
0.00460995
0.00460994
0.00460984
0.00460923
0.00460716
0.00460221
0.00459277
0.00457736
0.00455483
0.00452444
0.00448589
0.00443928
0.00438498
0.00432361
0.00425589
0.00418265
0.0041047
0.00402287
0.00393792
0.00385059
0.00376152
0.00367131
0.00358049
0.00348952
0.00339881
0.00330869
0.00321947
0.00313137
0.00304457
0.00295919
0.0028753
0.00279292
0.00271205
0.00263266
0.00255471
0.00247817
0.00240299
0.00232914
0.00225659
0.00218529
0.0021152
0.0020463
0.00197854
0.0019119
0.00184634
0.00178184
0.00171836
0.00165588
0.00159436
0.00153379
0.00147412
0.00141534
0.00135742
0.00130035
0.00124412
0.00118872
0.00113414
0.0010803
0.00102707
0.000974352
0.000922193
0.000870934
0.000821205
0.000773619
0.000728121
0.000683163
0.000635019
0.000577525
0.000503177
0.000407084
0.000293991
0.000181543
9.15737e-05
3.56086e-05
9.80446e-06
1.68929e-06
1.53673e-07
5.94341e-09
7.6436e-11
3.46842e-13
9.47196e-14
9.45529e-14
9.41822e-14
9.22327e-14
8.72401e-14
7.91827e-14
6.9444e-14
5.95809e-14
5.04247e-14
4.20607e-14
3.42314e-14
2.66715e-14
1.92741e-14
1.21964e-14
6.01796e-15
1.79925e-15
1.97259e-16
7.97461e-18
3.93333e-18
3.90081e-18
3.9003e-18
3.9003e-18
3.9003e-18
3.9003e-18
3.9003e-18
3.9003e-18
3.9003e-18
3.9003e-18
3.9003e-18
3.9003e-18
3.9003e-18
3.9003e-18
3.9003e-18
3.9003e-18
3.9003e-18
3.9003e-18
3.9003e-18
3.9003e-18
3.9003e-18
3.9003e-18
3.9003e-18
3.9003e-18
3.9003e-18
3.9003e-18
0.00460995
0.00460995
0.00460995
0.00460995
0.00460995
0.00460995
0.00460995
0.00460995
0.00460995
0.00460995
0.00460995
0.00460995
0.00460995
0.00460995
0.00460995
0.00460995
0.00460995
0.00460995
0.00460995
0.00460995
0.00460995
0.00460995
0.00460995
0.00460995
0.00460995
0.00460995
0.00460995
0.00460995
0.00460995
0.00460995
0.00460995
0.00460995
0.00460995
0.00460995
0.00460995
0.00460995
0.00460995
0.00460995
0.00460995
0.00460995
0.00460995
0.00460995
0.00460995
0.00460994
0.00460984
0.00460923
0.00460716
0.00460221
0.00459277
0.00457736
0.00455483
0.00452444
0.00448589
0.00443928
0.00438498
0.00432361
0.00425589
0.00418265
0.0041047
0.00402287
0.00393792
0.00385059
0.00376152
0.00367131
0.00358049
0.00348952
0.00339881
0.0033087
0.00321948
0.00313138
0.00304458
0.0029592
0.0028753
0.00279293
0.00271206
0.00263267
0.00255472
0.00247818
0.002403
0.00232915
0.0022566
0.0021853
0.00211521
0.00204631
0.00197855
0.00191191
0.00184636
0.00178186
0.00171838
0.0016559
0.00159438
0.0015338
0.00147414
0.00141536
0.00135744
0.00130037
0.00124414
0.00118874
0.00113417
0.00108032
0.00102709
0.000974376
0.000922218
0.000870959
0.000821229
0.000773643
0.000728145
0.000683188
0.000635047
0.000577561
0.000503223
0.000407139
0.000294047
0.000181589
9.16019e-05
3.56214e-05
9.80847e-06
1.69007e-06
1.53756e-07
5.94718e-09
7.64933e-11
3.47062e-13
9.47179e-14
9.45511e-14
9.41805e-14
9.22314e-14
8.72394e-14
7.91825e-14
6.94439e-14
5.95808e-14
5.04245e-14
4.20604e-14
3.42313e-14
2.66714e-14
1.9274e-14
1.21964e-14
6.01796e-15
1.79926e-15
1.97263e-16
7.97474e-18
3.93333e-18
3.90081e-18
3.9003e-18
3.9003e-18
3.9003e-18
3.9003e-18
3.9003e-18
3.9003e-18
3.9003e-18
3.9003e-18
3.9003e-18
3.9003e-18
3.9003e-18
3.9003e-18
3.9003e-18
3.9003e-18
3.9003e-18
3.9003e-18
3.9003e-18
3.9003e-18
3.9003e-18
3.9003e-18
3.9003e-18
3.9003e-18
3.9003e-18
3.9003e-18
0.00460995
0.00460995
0.00460995
0.00460995
0.00460995
0.00460995
0.00460995
0.00460995
0.00460995
0.00460995
0.00460995
0.00460995
0.00460995
0.00460995
0.00460995
0.00460995
0.00460995
0.00460995
0.00460995
0.00460995
0.00460995
0.00460995
0.00460995
0.00460995
0.00460995
0.00460995
0.00460995
0.00460995
0.00460995
0.00460995
0.00460995
0.00460995
0.00460995
0.00460995
0.00460995
0.00460995
0.00460995
0.00460995
0.00460995
0.00460995
0.00460995
0.00460995
0.00460995
0.00460994
0.00460984
0.00460923
0.00460716
0.00460221
0.00459277
0.00457736
0.00455483
0.00452444
0.00448589
0.00443928
0.00438498
0.00432361
0.00425589
0.00418265
0.0041047
0.00402287
0.00393792
0.00385059
0.00376152
0.00367131
0.00358049
0.00348952
0.00339881
0.0033087
0.00321948
0.00313138
0.00304458
0.0029592
0.00287531
0.00279293
0.00271206
0.00263268
0.00255473
0.00247818
0.00240301
0.00232916
0.00225661
0.00218531
0.00211523
0.00204632
0.00197857
0.00191193
0.00184637
0.00178187
0.0017184
0.00165591
0.0015944
0.00153382
0.00147416
0.00141538
0.00135746
0.00130039
0.00124416
0.00118877
0.00113419
0.00108035
0.00102712
0.000974402
0.000922244
0.000870986
0.000821256
0.000773669
0.00072817
0.000683215
0.000635078
0.000577601
0.000503278
0.000407206
0.000294119
0.000181649
9.16415e-05
3.56405e-05
9.81473e-06
1.69133e-06
1.53887e-07
5.95296e-09
7.65777e-11
3.47375e-13
9.47146e-14
9.45477e-14
9.41773e-14
9.22287e-14
8.72374e-14
7.91811e-14
6.94429e-14
5.958e-14
5.04237e-14
4.20598e-14
3.42308e-14
2.66711e-14
1.92738e-14
1.21963e-14
6.01795e-15
1.79928e-15
1.97267e-16
7.9749e-18
3.93333e-18
3.90081e-18
3.9003e-18
3.9003e-18
3.9003e-18
3.9003e-18
3.9003e-18
3.9003e-18
3.9003e-18
3.9003e-18
3.9003e-18
3.9003e-18
3.9003e-18
3.9003e-18
3.9003e-18
3.9003e-18
3.9003e-18
3.9003e-18
3.9003e-18
3.9003e-18
3.9003e-18
3.9003e-18
3.9003e-18
3.9003e-18
3.9003e-18
3.9003e-18
0.00460995
0.00460995
0.00460995
0.00460995
0.00460995
0.00460995
0.00460995
0.00460995
0.00460995
0.00460995
0.00460995
0.00460995
0.00460995
0.00460995
0.00460995
0.00460995
0.00460995
0.00460995
0.00460995
0.00460995
0.00460995
0.00460995
0.00460995
0.00460995
0.00460995
0.00460995
0.00460995
0.00460995
0.00460995
0.00460995
0.00460995
0.00460995
0.00460995
0.00460995
0.00460995
0.00460995
0.00460995
0.00460995
0.00460995
0.00460995
0.00460995
0.00460995
0.00460995
0.00460994
0.00460984
0.00460923
0.00460716
0.00460221
0.00459277
0.00457736
0.00455483
0.00452444
0.00448589
0.00443928
0.00438498
0.00432361
0.00425589
0.00418265
0.0041047
0.00402287
0.00393792
0.00385059
0.00376152
0.00367131
0.00358049
0.00348952
0.00339881
0.0033087
0.00321948
0.00313138
0.00304458
0.0029592
0.00287531
0.00279293
0.00271206
0.00263268
0.00255473
0.00247818
0.00240301
0.00232916
0.00225661
0.00218531
0.00211523
0.00204633
0.00197857
0.00191193
0.00184638
0.00178188
0.0017184
0.00165592
0.0015944
0.00153383
0.00147417
0.00141539
0.00135747
0.0013004
0.00124417
0.00118878
0.0011342
0.00108036
0.00102713
0.000974414
0.000922257
0.000870999
0.000821269
0.000773681
0.000728182
0.000683228
0.000635094
0.000577622
0.000503307
0.000407245
0.000294162
0.000181687
9.16676e-05
3.56536e-05
9.81926e-06
1.69227e-06
1.53989e-07
5.95748e-09
7.66439e-11
3.47619e-13
9.4712e-14
9.45449e-14
9.41746e-14
9.22264e-14
8.72356e-14
7.91798e-14
6.94419e-14
5.95792e-14
5.04232e-14
4.20594e-14
3.42305e-14
2.66709e-14
1.92738e-14
1.21963e-14
6.01798e-15
1.7993e-15
1.97272e-16
7.97504e-18
3.93333e-18
3.90081e-18
3.9003e-18
3.9003e-18
3.9003e-18
3.9003e-18
3.9003e-18
3.9003e-18
3.9003e-18
3.9003e-18
3.9003e-18
3.9003e-18
3.9003e-18
3.9003e-18
3.9003e-18
3.9003e-18
3.9003e-18
3.9003e-18
3.9003e-18
3.9003e-18
3.9003e-18
3.9003e-18
3.9003e-18
3.9003e-18
3.9003e-18
3.9003e-18
0.00460995
0.00460995
0.00460995
0.00460995
0.00460995
0.00460995
0.00460995
0.00460995
0.00460995
0.00460995
0.00460995
0.00460995
0.00460995
0.00460995
0.00460995
0.00460995
0.00460995
0.00460995
0.00460995
0.00460995
0.00460995
0.00460995
0.00460995
0.00460995
0.00460995
0.00460995
0.00460995
0.00460995
0.00460995
0.00460995
0.00460995
0.00460995
0.00460995
0.00460995
0.00460995
0.00460995
0.00460995
0.00460995
0.00460995
0.00460995
0.00460995
0.00460995
0.00460995
0.00460994
0.00460984
0.00460923
0.00460716
0.00460221
0.00459277
0.00457736
0.00455483
0.00452443
0.00448589
0.00443928
0.00438498
0.00432361
0.00425589
0.00418265
0.0041047
0.00402287
0.00393792
0.00385058
0.00376152
0.00367131
0.00358049
0.00348952
0.00339881
0.0033087
0.00321948
0.00313138
0.00304458
0.0029592
0.00287531
0.00279293
0.00271206
0.00263268
0.00255473
0.00247818
0.00240301
0.00232916
0.00225661
0.00218531
0.00211523
0.00204633
0.00197857
0.00191193
0.00184638
0.00178188
0.0017184
0.00165592
0.0015944
0.00153383
0.00147417
0.00141539
0.00135747
0.0013004
0.00124417
0.00118878
0.0011342
0.00108036
0.00102713
0.000974417
0.00092226
0.000871002
0.000821272
0.000773684
0.000728185
0.00068323
0.000635098
0.000577628
0.000503316
0.000407257
0.000294176
0.000181701
9.16771e-05
3.56586e-05
9.82108e-06
1.69267e-06
1.54034e-07
5.95965e-09
7.66774e-11
3.47748e-13
9.4711e-14
9.45439e-14
9.41736e-14
9.22255e-14
8.72349e-14
7.91793e-14
6.94415e-14
5.9579e-14
5.0423e-14
4.20594e-14
3.42305e-14
2.66709e-14
1.92738e-14
1.21964e-14
6.01803e-15
1.79932e-15
1.97276e-16
7.97516e-18
3.93333e-18
3.90081e-18
3.9003e-18
3.9003e-18
3.9003e-18
3.9003e-18
3.9003e-18
3.9003e-18
3.9003e-18
3.9003e-18
3.9003e-18
3.9003e-18
3.9003e-18
3.9003e-18
3.9003e-18
3.9003e-18
3.9003e-18
3.9003e-18
3.9003e-18
3.9003e-18
3.9003e-18
3.9003e-18
3.9003e-18
3.9003e-18
3.9003e-18
3.9003e-18
0.00460995
0.00460995
0.00460995
0.00460995
0.00460995
0.00460995
0.00460995
0.00460995
0.00460995
0.00460995
0.00460995
0.00460995
0.00460995
0.00460995
0.00460995
0.00460995
0.00460995
0.00460995
0.00460995
0.00460995
0.00460995
0.00460995
0.00460995
0.00460995
0.00460995
0.00460995
0.00460995
0.00460995
0.00460995
0.00460995
0.00460995
0.00460995
0.00460995
0.00460995
0.00460995
0.00460995
0.00460995
0.00460995
0.00460995
0.00460995
0.00460995
0.00460995
0.00460995
0.00460994
0.00460984
0.00460923
0.00460716
0.00460221
0.00459277
0.00457736
0.00455483
0.00452443
0.00448589
0.00443927
0.00438498
0.00432361
0.00425589
0.00418265
0.0041047
0.00402287
0.00393792
0.00385058
0.00376152
0.00367131
0.00358049
0.00348952
0.00339881
0.0033087
0.00321948
0.00313138
0.00304458
0.0029592
0.00287531
0.00279293
0.00271206
0.00263268
0.00255473
0.00247818
0.00240301
0.00232916
0.00225661
0.00218531
0.00211523
0.00204633
0.00197857
0.00191193
0.00184638
0.00178188
0.0017184
0.00165592
0.0015944
0.00153383
0.00147417
0.00141539
0.00135747
0.0013004
0.00124417
0.00118878
0.0011342
0.00108036
0.00102713
0.000974417
0.00092226
0.000871002
0.000821272
0.000773684
0.000728185
0.000683231
0.000635098
0.000577629
0.000503317
0.000407259
0.000294178
0.000181703
9.16789e-05
3.56596e-05
9.82145e-06
1.69277e-06
1.54047e-07
5.96033e-09
7.66891e-11
3.47798e-13
9.47109e-14
9.45437e-14
9.41734e-14
9.22254e-14
8.72349e-14
7.91793e-14
6.94416e-14
5.9579e-14
5.04231e-14
4.20594e-14
3.42306e-14
2.6671e-14
1.92739e-14
1.21964e-14
6.01807e-15
1.79934e-15
1.97279e-16
7.97528e-18
3.93333e-18
3.90081e-18
3.9003e-18
3.9003e-18
3.9003e-18
3.9003e-18
3.9003e-18
3.9003e-18
3.9003e-18
3.9003e-18
3.9003e-18
3.9003e-18
3.9003e-18
3.9003e-18
3.9003e-18
3.9003e-18
3.9003e-18
3.9003e-18
3.9003e-18
3.9003e-18
3.9003e-18
3.9003e-18
3.9003e-18
3.9003e-18
3.9003e-18
3.9003e-18
0.00460995
0.00460995
0.00460995
0.00460995
0.00460995
0.00460995
0.00460995
0.00460995
0.00460995
0.00460995
0.00460995
0.00460995
0.00460995
0.00460995
0.00460995
0.00460995
0.00460995
0.00460995
0.00460995
0.00460995
0.00460995
0.00460995
0.00460995
0.00460995
0.00460995
0.00460995
0.00460995
0.00460995
0.00460995
0.00460995
0.00460995
0.00460995
0.00460995
0.00460995
0.00460995
0.00460995
0.00460995
0.00460995
0.00460995
0.00460995
0.00460995
0.00460995
0.00460995
0.00460994
0.00460984
0.00460923
0.00460716
0.00460221
0.00459277
0.00457736
0.00455483
0.00452443
0.00448589
0.00443927
0.00438498
0.00432361
0.00425589
0.00418265
0.0041047
0.00402286
0.00393792
0.00385058
0.00376152
0.00367131
0.00358049
0.00348952
0.00339881
0.0033087
0.00321948
0.00313138
0.00304458
0.0029592
0.00287531
0.00279293
0.00271206
0.00263268
0.00255473
0.00247818
0.00240301
0.00232916
0.00225661
0.00218531
0.00211523
0.00204633
0.00197857
0.00191193
0.00184638
0.00178188
0.0017184
0.00165592
0.0015944
0.00153383
0.00147417
0.00141539
0.00135747
0.0013004
0.00124417
0.00118878
0.0011342
0.00108036
0.00102713
0.000974417
0.00092226
0.000871002
0.000821272
0.000773684
0.000728185
0.00068323
0.000635097
0.000577628
0.000503316
0.000407258
0.000294177
0.000181702
9.16785e-05
3.56595e-05
9.82145e-06
1.69278e-06
1.54049e-07
5.96047e-09
7.66921e-11
3.47813e-13
9.4711e-14
9.45438e-14
9.41735e-14
9.22255e-14
8.7235e-14
7.91794e-14
6.94417e-14
5.95792e-14
5.04232e-14
4.20596e-14
3.42307e-14
2.66711e-14
1.9274e-14
1.21965e-14
6.01811e-15
1.79936e-15
1.97283e-16
7.9754e-18
3.93333e-18
3.90081e-18
3.9003e-18
3.9003e-18
3.9003e-18
3.9003e-18
3.9003e-18
3.9003e-18
3.9003e-18
3.9003e-18
3.9003e-18
3.9003e-18
3.9003e-18
3.9003e-18
3.9003e-18
3.9003e-18
3.9003e-18
3.9003e-18
3.9003e-18
3.9003e-18
3.9003e-18
3.9003e-18
3.9003e-18
3.9003e-18
3.9003e-18
3.9003e-18
0.00460995
0.00460995
0.00460995
0.00460995
0.00460995
0.00460995
0.00460995
0.00460995
0.00460995
0.00460995
0.00460995
0.00460995
0.00460995
0.00460995
0.00460995
0.00460995
0.00460995
0.00460995
0.00460995
0.00460995
0.00460995
0.00460995
0.00460995
0.00460995
0.00460995
0.00460995
0.00460995
0.00460995
0.00460995
0.00460995
0.00460995
0.00460995
0.00460995
0.00460995
0.00460995
0.00460995
0.00460995
0.00460995
0.00460995
0.00460995
0.00460995
0.00460995
0.00460995
0.00460994
0.00460984
0.00460923
0.00460716
0.00460221
0.00459277
0.00457736
0.00455483
0.00452443
0.00448589
0.00443927
0.00438498
0.0043236
0.00425589
0.00418265
0.0041047
0.00402286
0.00393792
0.00385058
0.00376151
0.00367131
0.00358049
0.00348952
0.00339881
0.0033087
0.00321947
0.00313138
0.00304458
0.0029592
0.00287531
0.00279293
0.00271206
0.00263267
0.00255473
0.00247818
0.00240301
0.00232916
0.00225661
0.00218531
0.00211523
0.00204632
0.00197857
0.00191193
0.00184638
0.00178188
0.0017184
0.00165592
0.0015944
0.00153383
0.00147417
0.00141539
0.00135747
0.0013004
0.00124417
0.00118878
0.0011342
0.00108036
0.00102713
0.000974417
0.00092226
0.000871001
0.000821271
0.000773683
0.000728184
0.00068323
0.000635096
0.000577627
0.000503315
0.000407256
0.000294175
0.0001817
9.16773e-05
3.5659e-05
9.82133e-06
1.69276e-06
1.54048e-07
5.96048e-09
7.66928e-11
3.47818e-13
9.47113e-14
9.45441e-14
9.41739e-14
9.22258e-14
8.72353e-14
7.91797e-14
6.9442e-14
5.95794e-14
5.04234e-14
4.20597e-14
3.42308e-14
2.66712e-14
1.9274e-14
1.21965e-14
6.01815e-15
1.79938e-15
1.97286e-16
7.97551e-18
3.93334e-18
3.90081e-18
3.9003e-18
3.9003e-18
3.9003e-18
3.9003e-18
3.9003e-18
3.9003e-18
3.9003e-18
3.9003e-18
3.9003e-18
3.9003e-18
3.9003e-18
3.9003e-18
3.9003e-18
3.9003e-18
3.9003e-18
3.9003e-18
3.9003e-18
3.9003e-18
3.9003e-18
3.9003e-18
3.9003e-18
3.9003e-18
3.9003e-18
3.9003e-18
0.00460995
0.00460995
0.00460995
0.00460995
0.00460995
0.00460995
0.00460995
0.00460995
0.00460995
0.00460995
0.00460995
0.00460995
0.00460995
0.00460995
0.00460995
0.00460995
0.00460995
0.00460995
0.00460995
0.00460995
0.00460995
0.00460995
0.00460995
0.00460995
0.00460995
0.00460995
0.00460995
0.00460995
0.00460995
0.00460995
0.00460995
0.00460995
0.00460995
0.00460995
0.00460995
0.00460995
0.00460995
0.00460995
0.00460995
0.00460995
0.00460995
0.00460995
0.00460995
0.00460994
0.00460984
0.00460923
0.00460716
0.00460221
0.00459277
0.00457736
0.00455483
0.00452443
0.00448589
0.00443927
0.00438498
0.0043236
0.00425589
0.00418265
0.0041047
0.00402286
0.00393792
0.00385058
0.00376151
0.00367131
0.00358049
0.00348952
0.00339881
0.0033087
0.00321947
0.00313138
0.00304458
0.0029592
0.00287531
0.00279293
0.00271206
0.00263267
0.00255473
0.00247818
0.00240301
0.00232916
0.00225661
0.00218531
0.00211523
0.00204632
0.00197857
0.00191193
0.00184638
0.00178188
0.0017184
0.00165592
0.0015944
0.00153383
0.00147417
0.00141539
0.00135747
0.0013004
0.00124417
0.00118878
0.0011342
0.00108036
0.00102713
0.000974416
0.000922259
0.000871001
0.000821271
0.000773683
0.000728183
0.000683229
0.000635095
0.000577626
0.000503313
0.000407253
0.000294172
0.000181698
9.16757e-05
3.56583e-05
9.82111e-06
1.69272e-06
1.54045e-07
5.96042e-09
7.66927e-11
3.4782e-13
9.47118e-14
9.45445e-14
9.41743e-14
9.22263e-14
8.72357e-14
7.91801e-14
6.94423e-14
5.95797e-14
5.04236e-14
4.20599e-14
3.42309e-14
2.66713e-14
1.92741e-14
1.21966e-14
6.01819e-15
1.7994e-15
1.9729e-16
7.97561e-18
3.93334e-18
3.90081e-18
3.9003e-18
3.9003e-18
3.9003e-18
3.9003e-18
3.9003e-18
3.9003e-18
3.9003e-18
3.9003e-18
3.9003e-18
3.9003e-18
3.9003e-18
3.9003e-18
3.9003e-18
3.9003e-18
3.9003e-18
3.9003e-18
3.9003e-18
3.9003e-18
3.9003e-18
3.9003e-18
3.9003e-18
3.9003e-18
3.9003e-18
3.9003e-18
0.00460995
0.00460995
0.00460995
0.00460995
0.00460995
0.00460995
0.00460995
0.00460995
0.00460995
0.00460995
0.00460995
0.00460995
0.00460995
0.00460995
0.00460995
0.00460995
0.00460995
0.00460995
0.00460995
0.00460995
0.00460995
0.00460995
0.00460995
0.00460995
0.00460995
0.00460995
0.00460995
0.00460995
0.00460995
0.00460995
0.00460995
0.00460995
0.00460995
0.00460995
0.00460995
0.00460995
0.00460995
0.00460995
0.00460995
0.00460995
0.00460995
0.00460995
0.00460995
0.00460994
0.00460984
0.00460923
0.00460716
0.00460221
0.00459277
0.00457736
0.00455483
0.00452443
0.00448589
0.00443927
0.00438498
0.0043236
0.00425589
0.00418265
0.0041047
0.00402286
0.00393792
0.00385058
0.00376151
0.00367131
0.00358049
0.00348952
0.00339881
0.0033087
0.00321947
0.00313137
0.00304458
0.0029592
0.00287531
0.00279293
0.00271206
0.00263267
0.00255473
0.00247818
0.00240301
0.00232916
0.00225661
0.00218531
0.00211523
0.00204632
0.00197857
0.00191193
0.00184638
0.00178188
0.0017184
0.00165592
0.0015944
0.00153383
0.00147417
0.00141539
0.00135747
0.0013004
0.00124417
0.00118878
0.0011342
0.00108036
0.00102713
0.000974416
0.000922259
0.000871
0.00082127
0.000773682
0.000728183
0.000683228
0.000635095
0.000577624
0.000503311
0.000407251
0.00029417
0.000181696
9.16743e-05
3.56576e-05
9.82089e-06
1.69268e-06
1.54042e-07
5.9603e-09
7.66916e-11
3.47819e-13
9.47122e-14
9.4545e-14
9.41747e-14
9.22267e-14
8.72361e-14
7.91804e-14
6.94426e-14
5.95799e-14
5.04238e-14
4.206e-14
3.42311e-14
2.66714e-14
1.92742e-14
1.21967e-14
6.01823e-15
1.79942e-15
1.97293e-16
7.97571e-18
3.93334e-18
3.90081e-18
3.9003e-18
3.9003e-18
3.9003e-18
3.9003e-18
3.9003e-18
3.9003e-18
3.9003e-18
3.9003e-18
3.9003e-18
3.9003e-18
3.9003e-18
3.9003e-18
3.9003e-18
3.9003e-18
3.9003e-18
3.9003e-18
3.9003e-18
3.9003e-18
3.9003e-18
3.9003e-18
3.9003e-18
3.9003e-18
3.9003e-18
3.9003e-18
0.00460995
0.00460995
0.00460995
0.00460995
0.00460995
0.00460995
0.00460995
0.00460995
0.00460995
0.00460995
0.00460995
0.00460995
0.00460995
0.00460995
0.00460995
0.00460995
0.00460995
0.00460995
0.00460995
0.00460995
0.00460995
0.00460995
0.00460995
0.00460995
0.00460995
0.00460995
0.00460995
0.00460995
0.00460995
0.00460995
0.00460995
0.00460995
0.00460995
0.00460995
0.00460995
0.00460995
0.00460995
0.00460995
0.00460995
0.00460995
0.00460995
0.00460995
0.00460995
0.00460994
0.00460984
0.00460923
0.00460716
0.00460221
0.00459277
0.00457736
0.00455483
0.00452443
0.00448589
0.00443927
0.00438498
0.0043236
0.00425589
0.00418265
0.0041047
0.00402286
0.00393792
0.00385058
0.00376151
0.00367131
0.00358049
0.00348952
0.00339881
0.00330869
0.00321947
0.00313137
0.00304458
0.0029592
0.00287531
0.00279293
0.00271206
0.00263267
0.00255473
0.00247818
0.00240301
0.00232916
0.00225661
0.00218531
0.00211523
0.00204632
0.00197857
0.00191193
0.00184638
0.00178188
0.0017184
0.00165592
0.0015944
0.00153383
0.00147417
0.00141539
0.00135747
0.0013004
0.00124417
0.00118878
0.0011342
0.00108036
0.00102713
0.000974415
0.000922258
0.000871
0.00082127
0.000773682
0.000728182
0.000683228
0.000635094
0.000577623
0.00050331
0.000407249
0.000294168
0.000181694
9.16733e-05
3.56571e-05
9.82073e-06
1.69266e-06
1.54039e-07
5.96019e-09
7.66903e-11
3.47816e-13
9.47126e-14
9.45453e-14
9.41751e-14
9.2227e-14
8.72364e-14
7.91807e-14
6.94429e-14
5.95801e-14
5.0424e-14
4.20602e-14
3.42312e-14
2.66715e-14
1.92743e-14
1.21967e-14
6.01827e-15
1.79943e-15
1.97296e-16
7.97581e-18
3.93334e-18
3.90081e-18
3.9003e-18
3.9003e-18
3.9003e-18
3.9003e-18
3.9003e-18
3.9003e-18
3.9003e-18
3.9003e-18
3.9003e-18
3.9003e-18
3.9003e-18
3.9003e-18
3.9003e-18
3.9003e-18
3.9003e-18
3.9003e-18
3.9003e-18
3.9003e-18
3.9003e-18
3.9003e-18
3.9003e-18
3.9003e-18
3.9003e-18
3.9003e-18
0.00460995
0.00460995
0.00460995
0.00460995
0.00460995
0.00460995
0.00460995
0.00460995
0.00460995
0.00460995
0.00460995
0.00460995
0.00460995
0.00460995
0.00460995
0.00460995
0.00460995
0.00460995
0.00460995
0.00460995
0.00460995
0.00460995
0.00460995
0.00460995
0.00460995
0.00460995
0.00460995
0.00460995
0.00460995
0.00460995
0.00460995
0.00460995
0.00460995
0.00460995
0.00460995
0.00460995
0.00460995
0.00460995
0.00460995
0.00460995
0.00460995
0.00460995
0.00460995
0.00460994
0.00460984
0.00460923
0.00460716
0.00460221
0.00459277
0.00457736
0.00455483
0.00452443
0.00448589
0.00443927
0.00438498
0.0043236
0.00425589
0.00418264
0.0041047
0.00402286
0.00393792
0.00385058
0.00376151
0.00367131
0.00358049
0.00348952
0.00339881
0.00330869
0.00321947
0.00313137
0.00304458
0.0029592
0.0028753
0.00279293
0.00271206
0.00263267
0.00255473
0.00247818
0.00240301
0.00232916
0.00225661
0.00218531
0.00211523
0.00204632
0.00197857
0.00191193
0.00184638
0.00178188
0.0017184
0.00165592
0.0015944
0.00153383
0.00147417
0.00141539
0.00135747
0.0013004
0.00124417
0.00118878
0.0011342
0.00108036
0.00102713
0.000974415
0.000922258
0.000870999
0.000821269
0.000773681
0.000728182
0.000683227
0.000635094
0.000577623
0.000503309
0.000407248
0.000294167
0.000181693
9.16726e-05
3.56568e-05
9.82063e-06
1.69264e-06
1.54037e-07
5.96012e-09
7.66894e-11
3.47813e-13
9.47129e-14
9.45457e-14
9.41754e-14
9.22273e-14
8.72367e-14
7.9181e-14
6.94431e-14
5.95804e-14
5.04242e-14
4.20604e-14
3.42313e-14
2.66716e-14
1.92744e-14
1.21968e-14
6.01831e-15
1.79945e-15
1.97299e-16
7.97589e-18
3.93334e-18
3.90081e-18
3.9003e-18
3.9003e-18
3.9003e-18
3.9003e-18
3.9003e-18
3.9003e-18
3.9003e-18
3.9003e-18
3.9003e-18
3.9003e-18
3.9003e-18
3.9003e-18
3.9003e-18
3.9003e-18
3.9003e-18
3.9003e-18
3.9003e-18
3.9003e-18
3.9003e-18
3.9003e-18
3.9003e-18
3.9003e-18
3.9003e-18
3.9003e-18
0.00460995
0.00460995
0.00460995
0.00460995
0.00460995
0.00460995
0.00460995
0.00460995
0.00460995
0.00460995
0.00460995
0.00460995
0.00460995
0.00460995
0.00460995
0.00460995
0.00460995
0.00460995
0.00460995
0.00460995
0.00460995
0.00460995
0.00460995
0.00460995
0.00460995
0.00460995
0.00460995
0.00460995
0.00460995
0.00460995
0.00460995
0.00460995
0.00460995
0.00460995
0.00460995
0.00460995
0.00460995
0.00460995
0.00460995
0.00460995
0.00460995
0.00460995
0.00460995
0.00460994
0.00460984
0.00460923
0.00460716
0.00460221
0.00459277
0.00457736
0.00455482
0.00452443
0.00448589
0.00443927
0.00438498
0.0043236
0.00425589
0.00418264
0.0041047
0.00402286
0.00393792
0.00385058
0.00376151
0.0036713
0.00358049
0.00348952
0.00339881
0.00330869
0.00321947
0.00313137
0.00304457
0.0029592
0.0028753
0.00279293
0.00271206
0.00263267
0.00255473
0.00247818
0.00240301
0.00232916
0.00225661
0.00218531
0.00211523
0.00204632
0.00197857
0.00191193
0.00184638
0.00178188
0.0017184
0.00165592
0.0015944
0.00153383
0.00147417
0.00141539
0.00135747
0.0013004
0.00124417
0.00118878
0.0011342
0.00108036
0.00102713
0.000974415
0.000922258
0.000870999
0.000821269
0.000773681
0.000728182
0.000683227
0.000635093
0.000577622
0.000503308
0.000407247
0.000294166
0.000181692
9.16721e-05
3.56566e-05
9.82056e-06
1.69262e-06
1.54036e-07
5.96007e-09
7.66888e-11
3.47812e-13
9.47132e-14
9.4546e-14
9.41757e-14
9.22276e-14
8.7237e-14
7.91813e-14
6.94434e-14
5.95806e-14
5.04245e-14
4.20606e-14
3.42315e-14
2.66718e-14
1.92745e-14
1.21969e-14
6.01835e-15
1.79947e-15
1.97301e-16
7.97597e-18
3.93334e-18
3.90081e-18
3.9003e-18
3.9003e-18
3.9003e-18
3.9003e-18
3.9003e-18
3.9003e-18
3.9003e-18
3.9003e-18
3.9003e-18
3.9003e-18
3.9003e-18
3.9003e-18
3.9003e-18
3.9003e-18
3.9003e-18
3.9003e-18
3.9003e-18
3.9003e-18
3.9003e-18
3.9003e-18
3.9003e-18
3.9003e-18
3.9003e-18
3.9003e-18
0.00460995
0.00460995
0.00460995
0.00460995
0.00460995
0.00460995
0.00460995
0.00460995
0.00460995
0.00460995
0.00460995
0.00460995
0.00460995
0.00460995
0.00460995
0.00460995
0.00460995
0.00460995
0.00460995
0.00460995
0.00460995
0.00460995
0.00460995
0.00460995
0.00460995
0.00460995
0.00460995
0.00460995
0.00460995
0.00460995
0.00460995
0.00460995
0.00460995
0.00460995
0.00460995
0.00460995
0.00460995
0.00460995
0.00460995
0.00460995
0.00460995
0.00460995
0.00460995
0.00460994
0.00460984
0.00460923
0.00460716
0.00460221
0.00459277
0.00457736
0.00455482
0.00452443
0.00448589
0.00443927
0.00438498
0.0043236
0.00425589
0.00418264
0.0041047
0.00402286
0.00393792
0.00385058
0.00376151
0.0036713
0.00358049
0.00348952
0.00339881
0.00330869
0.00321947
0.00313137
0.00304457
0.0029592
0.0028753
0.00279293
0.00271206
0.00263267
0.00255473
0.00247818
0.00240301
0.00232916
0.00225661
0.00218531
0.00211523
0.00204632
0.00197857
0.00191193
0.00184638
0.00178188
0.0017184
0.00165592
0.0015944
0.00153383
0.00147417
0.00141539
0.00135747
0.0013004
0.00124417
0.00118878
0.0011342
0.00108036
0.00102713
0.000974414
0.000922257
0.000870999
0.000821269
0.000773681
0.000728182
0.000683227
0.000635093
0.000577622
0.000503307
0.000407247
0.000294165
0.000181692
9.16717e-05
3.56564e-05
9.82051e-06
1.69261e-06
1.54035e-07
5.96003e-09
7.66883e-11
3.4781e-13
9.47134e-14
9.45462e-14
9.4176e-14
9.22279e-14
8.72373e-14
7.91816e-14
6.94436e-14
5.95808e-14
5.04247e-14
4.20607e-14
3.42316e-14
2.66719e-14
1.92746e-14
1.21969e-14
6.01839e-15
1.79948e-15
1.97304e-16
7.97605e-18
3.93334e-18
3.90081e-18
3.9003e-18
3.9003e-18
3.9003e-18
3.9003e-18
3.9003e-18
3.9003e-18
3.9003e-18
3.9003e-18
3.9003e-18
3.9003e-18
3.9003e-18
3.9003e-18
3.9003e-18
3.9003e-18
3.9003e-18
3.9003e-18
3.9003e-18
3.9003e-18
3.9003e-18
3.9003e-18
3.9003e-18
3.9003e-18
3.9003e-18
3.9003e-18
0.00460995
0.00460995
0.00460995
0.00460995
0.00460995
0.00460995
0.00460995
0.00460995
0.00460995
0.00460995
0.00460995
0.00460995
0.00460995
0.00460995
0.00460995
0.00460995
0.00460995
0.00460995
0.00460995
0.00460995
0.00460995
0.00460995
0.00460995
0.00460995
0.00460995
0.00460995
0.00460995
0.00460995
0.00460995
0.00460995
0.00460995
0.00460995
0.00460995
0.00460995
0.00460995
0.00460995
0.00460995
0.00460995
0.00460995
0.00460995
0.00460995
0.00460995
0.00460995
0.00460994
0.00460984
0.00460923
0.00460716
0.00460221
0.00459277
0.00457736
0.00455482
0.00452443
0.00448589
0.00443927
0.00438498
0.0043236
0.00425589
0.00418264
0.0041047
0.00402286
0.00393792
0.00385058
0.00376151
0.0036713
0.00358049
0.00348952
0.00339881
0.00330869
0.00321947
0.00313137
0.00304457
0.0029592
0.0028753
0.00279293
0.00271206
0.00263267
0.00255473
0.00247818
0.00240301
0.00232916
0.00225661
0.00218531
0.00211523
0.00204632
0.00197857
0.00191193
0.00184638
0.00178188
0.0017184
0.00165592
0.0015944
0.00153383
0.00147417
0.00141539
0.00135747
0.0013004
0.00124417
0.00118878
0.0011342
0.00108036
0.00102713
0.000974414
0.000922257
0.000870999
0.000821268
0.000773681
0.000728181
0.000683227
0.000635093
0.000577622
0.000503307
0.000407246
0.000294164
0.000181691
9.16714e-05
3.56562e-05
9.82046e-06
1.6926e-06
1.54034e-07
5.95999e-09
7.66878e-11
3.47809e-13
9.47137e-14
9.45465e-14
9.41763e-14
9.22282e-14
8.72376e-14
7.91819e-14
6.94439e-14
5.95811e-14
5.04249e-14
4.20609e-14
3.42318e-14
2.6672e-14
1.92746e-14
1.2197e-14
6.01843e-15
1.7995e-15
1.97306e-16
7.97611e-18
3.93334e-18
3.90081e-18
3.9003e-18
3.9003e-18
3.9003e-18
3.9003e-18
3.9003e-18
3.9003e-18
3.9003e-18
3.9003e-18
3.9003e-18
3.9003e-18
3.9003e-18
3.9003e-18
3.9003e-18
3.9003e-18
3.9003e-18
3.9003e-18
3.9003e-18
3.9003e-18
3.9003e-18
3.9003e-18
3.9003e-18
3.9003e-18
3.9003e-18
3.9003e-18
0.00460995
0.00460995
0.00460995
0.00460995
0.00460995
0.00460995
0.00460995
0.00460995
0.00460995
0.00460995
0.00460995
0.00460995
0.00460995
0.00460995
0.00460995
0.00460995
0.00460995
0.00460995
0.00460995
0.00460995
0.00460995
0.00460995
0.00460995
0.00460995
0.00460995
0.00460995
0.00460995
0.00460995
0.00460995
0.00460995
0.00460995
0.00460995
0.00460995
0.00460995
0.00460995
0.00460995
0.00460995
0.00460995
0.00460995
0.00460995
0.00460995
0.00460995
0.00460995
0.00460994
0.00460984
0.00460923
0.00460716
0.00460221
0.00459277
0.00457736
0.00455482
0.00452443
0.00448589
0.00443927
0.00438498
0.0043236
0.00425589
0.00418264
0.0041047
0.00402286
0.00393792
0.00385058
0.00376151
0.0036713
0.00358048
0.00348952
0.0033988
0.00330869
0.00321947
0.00313137
0.00304457
0.00295919
0.0028753
0.00279293
0.00271206
0.00263267
0.00255473
0.00247818
0.002403
0.00232916
0.00225661
0.00218531
0.00211523
0.00204632
0.00197857
0.00191193
0.00184638
0.00178188
0.0017184
0.00165592
0.0015944
0.00153383
0.00147416
0.00141539
0.00135747
0.0013004
0.00124417
0.00118878
0.0011342
0.00108036
0.00102713
0.000974414
0.000922257
0.000870998
0.000821268
0.00077368
0.000728181
0.000683226
0.000635092
0.000577621
0.000503307
0.000407246
0.000294164
0.000181691
9.16712e-05
3.56561e-05
9.82042e-06
1.6926e-06
1.54033e-07
5.95996e-09
7.66874e-11
3.47808e-13
9.4714e-14
9.45468e-14
9.41765e-14
9.22285e-14
8.72379e-14
7.91821e-14
6.94441e-14
5.95813e-14
5.0425e-14
4.20611e-14
3.42319e-14
2.66721e-14
1.92747e-14