/*--------------------------------*- C++ -*----------------------------------*\
  =========                 |
  \\      /  F ield         | OpenFOAM: The Open Source CFD Toolbox
   \\    /   O peration     | Website:  https://openfoam.org
    \\  /    A nd           | Version:  13
     \\/     M anipulation  |
\*---------------------------------------------------------------------------*/
FoamFile
{
    format      ascii;
    class       volScalarField;
    location    "0.0008";
    object      H2O;
}
// * * * * * * * * * * * * * * * * * * * * * * * * * * * * * * * * * * * * * //

dimensions      [];

internalField   nonuniform List<scalar> 
33334
(
0.00377413
0.00377413
0.00377413
0.00377413
0.00377413
0.00377413
0.00377413
0.00377413
0.00377413
0.00377413
0.00377413
0.00377413
0.00377413
0.00377413
0.00377413
0.00377413
0.00377413
0.00377413
0.00377413
0.00377413
0.00377413
0.00377413
0.00377413
0.00377413
0.00377413
0.00377413
0.00377413
0.00377413
0.00377413
0.00377413
0.00377413
0.00377413
0.00377413
0.00377413
0.00377413
0.00377413
0.00377413
0.00377413
0.00377413
0.00377413
0.00377413
0.00377413
0.00377413
0.00377412
0.00377404
0.00377354
0.00377184
0.00376779
0.00376006
0.00374744
0.003729
0.00370412
0.00367256
0.0036344
0.00358995
0.0035397
0.00348426
0.0034243
0.00336048
0.00329349
0.00322394
0.00315244
0.00307952
0.00300567
0.00293131
0.00285684
0.00278257
0.0027088
0.00263575
0.00256363
0.00249256
0.00242266
0.00235398
0.00228654
0.00222033
0.00215534
0.00209152
0.00202885
0.00196731
0.00190685
0.00184745
0.00178908
0.0017317
0.00167529
0.00161981
0.00156526
0.00151159
0.00145878
0.00140681
0.00135565
0.00130529
0.0012557
0.00120685
0.00115873
0.00111131
0.00106458
0.00101855
0.000973197
0.000928513
0.000884432
0.000840854
0.000797693
0.000754991
0.000713026
0.000672313
0.000633355
0.000596106
0.0005593
0.000519884
0.000472815
0.000411947
0.000333276
0.000240688
0.000148628
7.49706e-05
2.91525e-05
8.02683e-06
1.383e-06
1.25811e-07
4.86582e-09
6.25775e-11
2.83956e-13
7.75461e-14
7.74097e-14
7.71062e-14
7.55101e-14
7.14227e-14
6.48262e-14
5.68532e-14
4.87784e-14
4.12822e-14
3.44347e-14
2.8025e-14
2.18358e-14
1.57795e-14
9.9851e-15
4.92685e-15
1.47303e-15
1.61495e-16
6.52874e-18
3.22018e-18
3.19356e-18
3.19314e-18
3.19314e-18
3.19314e-18
3.19314e-18
3.19314e-18
3.19314e-18
3.19314e-18
3.19314e-18
3.19314e-18
3.19314e-18
3.19314e-18
3.19314e-18
3.19314e-18
3.19314e-18
3.19314e-18
3.19314e-18
3.19314e-18
3.19314e-18
3.19314e-18
3.19314e-18
3.19314e-18
3.19314e-18
3.19314e-18
3.19314e-18
0.00377413
0.00377413
0.00377413
0.00377413
0.00377413
0.00377413
0.00377413
0.00377413
0.00377413
0.00377413
0.00377413
0.00377413
0.00377413
0.00377413
0.00377413
0.00377413
0.00377413
0.00377413
0.00377413
0.00377413
0.00377413
0.00377413
0.00377413
0.00377413
0.00377413
0.00377413
0.00377413
0.00377413
0.00377413
0.00377413
0.00377413
0.00377413
0.00377413
0.00377413
0.00377413
0.00377413
0.00377413
0.00377413
0.00377413
0.00377413
0.00377413
0.00377413
0.00377413
0.00377412
0.00377404
0.00377354
0.00377184
0.00376779
0.00376006
0.00374744
0.003729
0.00370412
0.00367256
0.0036344
0.00358995
0.0035397
0.00348426
0.0034243
0.00336048
0.00329349
0.00322394
0.00315244
0.00307952
0.00300567
0.00293132
0.00285684
0.00278258
0.0027088
0.00263576
0.00256363
0.00249257
0.00242267
0.00235399
0.00228654
0.00222034
0.00215534
0.00209153
0.00202886
0.00196731
0.00190686
0.00184746
0.00178909
0.00173171
0.0016753
0.00161982
0.00156527
0.0015116
0.00145879
0.00140682
0.00135567
0.0013053
0.00125571
0.00120687
0.00115874
0.00111133
0.0010646
0.00101856
0.000973215
0.000928531
0.000884451
0.000840873
0.000797713
0.000755012
0.000713046
0.000672333
0.000633375
0.000596126
0.00055932
0.000519907
0.000472844
0.000411985
0.000333321
0.000240734
0.000148665
7.49937e-05
2.91629e-05
8.03011e-06
1.38365e-06
1.25879e-07
4.8689e-09
6.26244e-11
2.84136e-13
7.75447e-14
7.74082e-14
7.71048e-14
7.55091e-14
7.14221e-14
6.4826e-14
5.68531e-14
4.87783e-14
4.12821e-14
3.44345e-14
2.80248e-14
2.18356e-14
1.57795e-14
9.98507e-15
4.92685e-15
1.47304e-15
1.61498e-16
6.52885e-18
3.22018e-18
3.19356e-18
3.19314e-18
3.19314e-18
3.19314e-18
3.19314e-18
3.19314e-18
3.19314e-18
3.19314e-18
3.19314e-18
3.19314e-18
3.19314e-18
3.19314e-18
3.19314e-18
3.19314e-18
3.19314e-18
3.19314e-18
3.19314e-18
3.19314e-18
3.19314e-18
3.19314e-18
3.19314e-18
3.19314e-18
3.19314e-18
3.19314e-18
3.19314e-18
0.00377413
0.00377413
0.00377413
0.00377413
0.00377413
0.00377413
0.00377413
0.00377413
0.00377413
0.00377413
0.00377413
0.00377413
0.00377413
0.00377413
0.00377413
0.00377413
0.00377413
0.00377413
0.00377413
0.00377413
0.00377413
0.00377413
0.00377413
0.00377413
0.00377413
0.00377413
0.00377413
0.00377413
0.00377413
0.00377413
0.00377413
0.00377413
0.00377413
0.00377413
0.00377413
0.00377413
0.00377413
0.00377413
0.00377413
0.00377413
0.00377413
0.00377413
0.00377413
0.00377412
0.00377404
0.00377354
0.00377184
0.00376779
0.00376006
0.00374744
0.003729
0.00370412
0.00367256
0.0036344
0.00358995
0.0035397
0.00348426
0.0034243
0.00336048
0.00329349
0.00322394
0.00315244
0.00307952
0.00300567
0.00293132
0.00285684
0.00278258
0.0027088
0.00263576
0.00256363
0.00249257
0.00242267
0.00235399
0.00228655
0.00222034
0.00215535
0.00209153
0.00202887
0.00196732
0.00190686
0.00184747
0.00178909
0.00173172
0.00167531
0.00161983
0.00156528
0.00151161
0.0014588
0.00140684
0.00135568
0.00130532
0.00125573
0.00120688
0.00115876
0.00111134
0.00106462
0.00101858
0.000973233
0.00092855
0.000884471
0.000840894
0.000797734
0.000755033
0.000713068
0.000672355
0.000633396
0.000596147
0.000559342
0.000519933
0.000472877
0.000412029
0.000333376
0.000240792
0.000148715
7.50261e-05
2.91785e-05
8.03523e-06
1.38468e-06
1.25986e-07
4.87363e-09
6.26935e-11
2.84393e-13
7.7542e-14
7.74053e-14
7.71021e-14
7.55068e-14
7.14205e-14
6.48249e-14
5.68523e-14
4.87776e-14
4.12815e-14
3.4434e-14
2.80244e-14
2.18354e-14
1.57793e-14
9.98501e-15
4.92685e-15
1.47305e-15
1.61501e-16
6.52898e-18
3.22018e-18
3.19356e-18
3.19314e-18
3.19314e-18
3.19314e-18
3.19314e-18
3.19314e-18
3.19314e-18
3.19314e-18
3.19314e-18
3.19314e-18
3.19314e-18
3.19314e-18
3.19314e-18
3.19314e-18
3.19314e-18
3.19314e-18
3.19314e-18
3.19314e-18
3.19314e-18
3.19314e-18
3.19314e-18
3.19314e-18
3.19314e-18
3.19314e-18
3.19314e-18
0.00377413
0.00377413
0.00377413
0.00377413
0.00377413
0.00377413
0.00377413
0.00377413
0.00377413
0.00377413
0.00377413
0.00377413
0.00377413
0.00377413
0.00377413
0.00377413
0.00377413
0.00377413
0.00377413
0.00377413
0.00377413
0.00377413
0.00377413
0.00377413
0.00377413
0.00377413
0.00377413
0.00377413
0.00377413
0.00377413
0.00377413
0.00377413
0.00377413
0.00377413
0.00377413
0.00377413
0.00377413
0.00377413
0.00377413
0.00377413
0.00377413
0.00377413
0.00377413
0.00377412
0.00377404
0.00377354
0.00377184
0.00376779
0.00376006
0.00374744
0.003729
0.00370412
0.00367256
0.0036344
0.00358994
0.0035397
0.00348426
0.0034243
0.00336048
0.00329349
0.00322394
0.00315244
0.00307952
0.00300567
0.00293132
0.00285684
0.00278258
0.0027088
0.00263576
0.00256363
0.00249257
0.00242267
0.00235399
0.00228655
0.00222034
0.00215535
0.00209154
0.00202887
0.00196732
0.00190687
0.00184747
0.0017891
0.00173172
0.00167531
0.00161984
0.00156528
0.00151161
0.00145881
0.00140684
0.00135569
0.00130532
0.00125573
0.00120689
0.00115877
0.00111135
0.00106462
0.00101859
0.000973241
0.000928558
0.00088448
0.000840903
0.000797744
0.000755044
0.000713079
0.000672365
0.000633406
0.000596156
0.000559352
0.000519946
0.000472894
0.000412053
0.000333408
0.000240827
0.000148746
7.50474e-05
2.91893e-05
8.03894e-06
1.38545e-06
1.26069e-07
4.87734e-09
6.27477e-11
2.84593e-13
7.75399e-14
7.74031e-14
7.71e-14
7.5505e-14
7.1419e-14
6.48238e-14
5.68515e-14
4.8777e-14
4.1281e-14
3.44337e-14
2.80242e-14
2.18352e-14
1.57793e-14
9.98501e-15
4.92687e-15
1.47307e-15
1.61504e-16
6.52909e-18
3.22018e-18
3.19356e-18
3.19314e-18
3.19314e-18
3.19314e-18
3.19314e-18
3.19314e-18
3.19314e-18
3.19314e-18
3.19314e-18
3.19314e-18
3.19314e-18
3.19314e-18
3.19314e-18
3.19314e-18
3.19314e-18
3.19314e-18
3.19314e-18
3.19314e-18
3.19314e-18
3.19314e-18
3.19314e-18
3.19314e-18
3.19314e-18
3.19314e-18
3.19314e-18
0.00377413
0.00377413
0.00377413
0.00377413
0.00377413
0.00377413
0.00377413
0.00377413
0.00377413
0.00377413
0.00377413
0.00377413
0.00377413
0.00377413
0.00377413
0.00377413
0.00377413
0.00377413
0.00377413
0.00377413
0.00377413
0.00377413
0.00377413
0.00377413
0.00377413
0.00377413
0.00377413
0.00377413
0.00377413
0.00377413
0.00377413
0.00377413
0.00377413
0.00377413
0.00377413
0.00377413
0.00377413
0.00377413
0.00377413
0.00377413
0.00377413
0.00377413
0.00377413
0.00377412
0.00377404
0.00377354
0.00377184
0.00376779
0.00376006
0.00374744
0.003729
0.00370412
0.00367256
0.0036344
0.00358994
0.0035397
0.00348426
0.0034243
0.00336048
0.00329349
0.00322394
0.00315244
0.00307952
0.00300567
0.00293132
0.00285684
0.00278258
0.0027088
0.00263576
0.00256363
0.00249257
0.00242267
0.00235399
0.00228655
0.00222034
0.00215535
0.00209154
0.00202887
0.00196732
0.00190687
0.00184747
0.0017891
0.00173172
0.00167531
0.00161984
0.00156528
0.00151161
0.00145881
0.00140684
0.00135569
0.00130532
0.00125573
0.00120689
0.00115877
0.00111135
0.00106463
0.00101859
0.000973243
0.00092856
0.000884482
0.000840905
0.000797747
0.000755046
0.000713081
0.000672368
0.000633408
0.000596159
0.000559355
0.000519949
0.000472899
0.00041206
0.000333418
0.000240839
0.000148757
7.50553e-05
2.91934e-05
8.04043e-06
1.38578e-06
1.26107e-07
4.87912e-09
6.27751e-11
2.84698e-13
7.75391e-14
7.74022e-14
7.70991e-14
7.55042e-14
7.14185e-14
6.48234e-14
5.68512e-14
4.87768e-14
4.12809e-14
3.44336e-14
2.80242e-14
2.18353e-14
1.57793e-14
9.98505e-15
4.9269e-15
1.47309e-15
1.61508e-16
6.5292e-18
3.22019e-18
3.19356e-18
3.19314e-18
3.19314e-18
3.19314e-18
3.19314e-18
3.19314e-18
3.19314e-18
3.19314e-18
3.19314e-18
3.19314e-18
3.19314e-18
3.19314e-18
3.19314e-18
3.19314e-18
3.19314e-18
3.19314e-18
3.19314e-18
3.19314e-18
3.19314e-18
3.19314e-18
3.19314e-18
3.19314e-18
3.19314e-18
3.19314e-18
3.19314e-18
0.00377413
0.00377413
0.00377413
0.00377413
0.00377413
0.00377413
0.00377413
0.00377413
0.00377413
0.00377413
0.00377413
0.00377413
0.00377413
0.00377413
0.00377413
0.00377413
0.00377413
0.00377413
0.00377413
0.00377413
0.00377413
0.00377413
0.00377413
0.00377413
0.00377413
0.00377413
0.00377413
0.00377413
0.00377413
0.00377413
0.00377413
0.00377413
0.00377413
0.00377413
0.00377413
0.00377413
0.00377413
0.00377413
0.00377413
0.00377413
0.00377413
0.00377413
0.00377413
0.00377412
0.00377404
0.00377354
0.00377184
0.00376779
0.00376006
0.00374744
0.003729
0.00370411
0.00367256
0.0036344
0.00358994
0.0035397
0.00348426
0.0034243
0.00336048
0.00329348
0.00322394
0.00315244
0.00307952
0.00300567
0.00293132
0.00285684
0.00278258
0.0027088
0.00263576
0.00256363
0.00249257
0.00242267
0.00235399
0.00228655
0.00222034
0.00215535
0.00209154
0.00202887
0.00196732
0.00190687
0.00184747
0.0017891
0.00173172
0.00167531
0.00161984
0.00156528
0.00151161
0.00145881
0.00140684
0.00135569
0.00130532
0.00125573
0.00120689
0.00115877
0.00111135
0.00106463
0.00101859
0.000973243
0.000928561
0.000884482
0.000840905
0.000797747
0.000755046
0.000713082
0.000672368
0.000633408
0.000596159
0.000559355
0.000519949
0.0004729
0.000412061
0.000333419
0.000240841
0.000148759
7.50567e-05
2.91942e-05
8.04074e-06
1.38586e-06
1.26117e-07
4.87967e-09
6.27847e-11
2.84739e-13
7.7539e-14
7.74021e-14
7.7099e-14
7.55041e-14
7.14184e-14
6.48234e-14
5.68512e-14
4.87768e-14
4.12809e-14
3.44337e-14
2.80243e-14
2.18353e-14
1.57793e-14
9.98511e-15
4.92694e-15
1.47311e-15
1.61511e-16
6.5293e-18
3.22019e-18
3.19356e-18
3.19314e-18
3.19314e-18
3.19314e-18
3.19314e-18
3.19314e-18
3.19314e-18
3.19314e-18
3.19314e-18
3.19314e-18
3.19314e-18
3.19314e-18
3.19314e-18
3.19314e-18
3.19314e-18
3.19314e-18
3.19314e-18
3.19314e-18
3.19314e-18
3.19314e-18
3.19314e-18
3.19314e-18
3.19314e-18
3.19314e-18
3.19314e-18
0.00377413
0.00377413
0.00377413
0.00377413
0.00377413
0.00377413
0.00377413
0.00377413
0.00377413
0.00377413
0.00377413
0.00377413
0.00377413
0.00377413
0.00377413
0.00377413
0.00377413
0.00377413
0.00377413
0.00377413
0.00377413
0.00377413
0.00377413
0.00377413
0.00377413
0.00377413
0.00377413
0.00377413
0.00377413
0.00377413
0.00377413
0.00377413
0.00377413
0.00377413
0.00377413
0.00377413
0.00377413
0.00377413
0.00377413
0.00377413
0.00377413
0.00377413
0.00377413
0.00377412
0.00377404
0.00377354
0.00377184
0.00376779
0.00376006
0.00374744
0.003729
0.00370411
0.00367256
0.00363439
0.00358994
0.0035397
0.00348426
0.0034243
0.00336048
0.00329348
0.00322394
0.00315244
0.00307952
0.00300567
0.00293131
0.00285684
0.00278257
0.0027088
0.00263576
0.00256363
0.00249257
0.00242267
0.00235399
0.00228655
0.00222034
0.00215535
0.00209154
0.00202887
0.00196732
0.00190687
0.00184747
0.0017891
0.00173172
0.00167531
0.00161984
0.00156528
0.00151161
0.00145881
0.00140684
0.00135569
0.00130532
0.00125573
0.00120689
0.00115877
0.00111135
0.00106463
0.00101859
0.000973243
0.00092856
0.000884482
0.000840905
0.000797747
0.000755046
0.000713082
0.000672368
0.000633408
0.000596158
0.000559355
0.000519949
0.000472899
0.000412061
0.000333419
0.00024084
0.000148758
7.50564e-05
2.91941e-05
8.04073e-06
1.38586e-06
1.26118e-07
4.87978e-09
6.27871e-11
2.84751e-13
7.75391e-14
7.74022e-14
7.70991e-14
7.55042e-14
7.14185e-14
6.48235e-14
5.68513e-14
4.87769e-14
4.12811e-14
3.44338e-14
2.80244e-14
2.18354e-14
1.57794e-14
9.98516e-15
4.92698e-15
1.47312e-15
1.61514e-16
6.52939e-18
3.22019e-18
3.19356e-18
3.19314e-18
3.19314e-18
3.19314e-18
3.19314e-18
3.19314e-18
3.19314e-18
3.19314e-18
3.19314e-18
3.19314e-18
3.19314e-18
3.19314e-18
3.19314e-18
3.19314e-18
3.19314e-18
3.19314e-18
3.19314e-18
3.19314e-18
3.19314e-18
3.19314e-18
3.19314e-18
3.19314e-18
3.19314e-18
3.19314e-18
3.19314e-18
0.00377413
0.00377413
0.00377413
0.00377413
0.00377413
0.00377413
0.00377413
0.00377413
0.00377413
0.00377413
0.00377413
0.00377413
0.00377413
0.00377413
0.00377413
0.00377413
0.00377413
0.00377413
0.00377413
0.00377413
0.00377413
0.00377413
0.00377413
0.00377413
0.00377413
0.00377413
0.00377413
0.00377413
0.00377413
0.00377413
0.00377413
0.00377413
0.00377413
0.00377413
0.00377413
0.00377413
0.00377413
0.00377413
0.00377413
0.00377413
0.00377413
0.00377413
0.00377413
0.00377412
0.00377404
0.00377354
0.00377184
0.00376779
0.00376006
0.00374744
0.003729
0.00370411
0.00367256
0.00363439
0.00358994
0.0035397
0.00348426
0.0034243
0.00336048
0.00329348
0.00322394
0.00315244
0.00307952
0.00300567
0.00293131
0.00285684
0.00278257
0.0027088
0.00263576
0.00256363
0.00249257
0.00242267
0.00235399
0.00228655
0.00222034
0.00215535
0.00209153
0.00202887
0.00196732
0.00190687
0.00184747
0.00178909
0.00173172
0.00167531
0.00161984
0.00156528
0.00151161
0.00145881
0.00140684
0.00135569
0.00130532
0.00125573
0.00120689
0.00115877
0.00111135
0.00106463
0.00101859
0.000973242
0.00092856
0.000884481
0.000840905
0.000797746
0.000755046
0.000713081
0.000672367
0.000633408
0.000596158
0.000559354
0.000519948
0.000472898
0.000412059
0.000333417
0.000240839
0.000148756
7.50554e-05
2.91937e-05
8.04063e-06
1.38585e-06
1.26118e-07
4.87979e-09
6.27877e-11
2.84755e-13
7.75393e-14
7.74024e-14
7.70993e-14
7.55045e-14
7.14188e-14
6.48238e-14
5.68515e-14
4.87771e-14
4.12812e-14
3.44339e-14
2.80245e-14
2.18355e-14
1.57795e-14
9.98521e-15
4.92701e-15
1.47314e-15
1.61517e-16
6.52948e-18
3.22019e-18
3.19356e-18
3.19314e-18
3.19314e-18
3.19314e-18
3.19314e-18
3.19314e-18
3.19314e-18
3.19314e-18
3.19314e-18
3.19314e-18
3.19314e-18
3.19314e-18
3.19314e-18
3.19314e-18
3.19314e-18
3.19314e-18
3.19314e-18
3.19314e-18
3.19314e-18
3.19314e-18
3.19314e-18
3.19314e-18
3.19314e-18
3.19314e-18
3.19314e-18
0.00377413
0.00377413
0.00377413
0.00377413
0.00377413
0.00377413
0.00377413
0.00377413
0.00377413
0.00377413
0.00377413
0.00377413
0.00377413
0.00377413
0.00377413
0.00377413
0.00377413
0.00377413
0.00377413
0.00377413
0.00377413
0.00377413
0.00377413
0.00377413
0.00377413
0.00377413
0.00377413
0.00377413
0.00377413
0.00377413
0.00377413
0.00377413
0.00377413
0.00377413
0.00377413
0.00377413
0.00377413
0.00377413
0.00377413
0.00377413
0.00377413
0.00377413
0.00377413
0.00377412
0.00377404
0.00377354
0.00377184
0.00376779
0.00376006
0.00374744
0.003729
0.00370411
0.00367256
0.00363439
0.00358994
0.0035397
0.00348426
0.0034243
0.00336048
0.00329348
0.00322394
0.00315244
0.00307952
0.00300567
0.00293131
0.00285684
0.00278257
0.0027088
0.00263576
0.00256363
0.00249257
0.00242267
0.00235399
0.00228655
0.00222034
0.00215535
0.00209153
0.00202887
0.00196732
0.00190687
0.00184747
0.00178909
0.00173172
0.00167531
0.00161984
0.00156528
0.00151161
0.00145881
0.00140684
0.00135569
0.00130532
0.00125573
0.00120689
0.00115877
0.00111135
0.00106463
0.00101859
0.000973242
0.00092856
0.000884481
0.000840905
0.000797746
0.000755045
0.000713081
0.000672367
0.000633407
0.000596157
0.000559353
0.000519947
0.000472897
0.000412058
0.000333415
0.000240836
0.000148754
7.50541e-05
2.91931e-05
8.04045e-06
1.38582e-06
1.26115e-07
4.87974e-09
6.27876e-11
2.84757e-13
7.75397e-14
7.74028e-14
7.70997e-14
7.55048e-14
7.14191e-14
6.48241e-14
5.68518e-14
4.87773e-14
4.12814e-14
3.4434e-14
2.80246e-14
2.18356e-14
1.57795e-14
9.98526e-15
4.92704e-15
1.47315e-15
1.61519e-16
6.52957e-18
3.22019e-18
3.19356e-18
3.19314e-18
3.19314e-18
3.19314e-18
3.19314e-18
3.19314e-18
3.19314e-18
3.19314e-18
3.19314e-18
3.19314e-18
3.19314e-18
3.19314e-18
3.19314e-18
3.19314e-18
3.19314e-18
3.19314e-18
3.19314e-18
3.19314e-18
3.19314e-18
3.19314e-18
3.19314e-18
3.19314e-18
3.19314e-18
3.19314e-18
3.19314e-18
0.00377413
0.00377413
0.00377413
0.00377413
0.00377413
0.00377413
0.00377413
0.00377413
0.00377413
0.00377413
0.00377413
0.00377413
0.00377413
0.00377413
0.00377413
0.00377413
0.00377413
0.00377413
0.00377413
0.00377413
0.00377413
0.00377413
0.00377413
0.00377413
0.00377413
0.00377413
0.00377413
0.00377413
0.00377413
0.00377413
0.00377413
0.00377413
0.00377413
0.00377413
0.00377413
0.00377413
0.00377413
0.00377413
0.00377413
0.00377413
0.00377413
0.00377413
0.00377413
0.00377412
0.00377404
0.00377354
0.00377184
0.00376779
0.00376006
0.00374744
0.003729
0.00370411
0.00367256
0.00363439
0.00358994
0.0035397
0.00348426
0.0034243
0.00336048
0.00329348
0.00322394
0.00315244
0.00307952
0.00300567
0.00293131
0.00285684
0.00278257
0.0027088
0.00263575
0.00256363
0.00249257
0.00242267
0.00235399
0.00228655
0.00222034
0.00215535
0.00209153
0.00202887
0.00196732
0.00190686
0.00184747
0.00178909
0.00173172
0.00167531
0.00161984
0.00156528
0.00151161
0.00145881
0.00140684
0.00135569
0.00130532
0.00125573
0.00120689
0.00115877
0.00111135
0.00106463
0.00101859
0.000973242
0.000928559
0.000884481
0.000840904
0.000797745
0.000755045
0.00071308
0.000672367
0.000633407
0.000596157
0.000559353
0.000519946
0.000472896
0.000412056
0.000333413
0.000240834
0.000148753
7.50529e-05
2.91925e-05
8.04028e-06
1.38579e-06
1.26113e-07
4.87965e-09
6.27868e-11
2.84757e-13
7.754e-14
7.74031e-14
7.71e-14
7.55052e-14
7.14194e-14
6.48243e-14
5.6852e-14
4.87775e-14
4.12816e-14
3.44342e-14
2.80247e-14
2.18357e-14
1.57796e-14
9.98531e-15
4.92708e-15
1.47317e-15
1.61522e-16
6.52965e-18
3.22019e-18
3.19356e-18
3.19314e-18
3.19314e-18
3.19314e-18
3.19314e-18
3.19314e-18
3.19314e-18
3.19314e-18
3.19314e-18
3.19314e-18
3.19314e-18
3.19314e-18
3.19314e-18
3.19314e-18
3.19314e-18
3.19314e-18
3.19314e-18
3.19314e-18
3.19314e-18
3.19314e-18
3.19314e-18
3.19314e-18
3.19314e-18
3.19314e-18
3.19314e-18
0.00377413
0.00377413
0.00377413
0.00377413
0.00377413
0.00377413
0.00377413
0.00377413
0.00377413
0.00377413
0.00377413
0.00377413
0.00377413
0.00377413
0.00377413
0.00377413
0.00377413
0.00377413
0.00377413
0.00377413
0.00377413
0.00377413
0.00377413
0.00377413
0.00377413
0.00377413
0.00377413
0.00377413
0.00377413
0.00377413
0.00377413
0.00377413
0.00377413
0.00377413
0.00377413
0.00377413
0.00377413
0.00377413
0.00377413
0.00377413
0.00377413
0.00377413
0.00377413
0.00377412
0.00377404
0.00377354
0.00377184
0.00376779
0.00376006
0.00374744
0.003729
0.00370411
0.00367256
0.00363439
0.00358994
0.0035397
0.00348426
0.00342429
0.00336048
0.00329348
0.00322394
0.00315244
0.00307952
0.00300567
0.00293131
0.00285684
0.00278257
0.0027088
0.00263575
0.00256363
0.00249257
0.00242267
0.00235399
0.00228655
0.00222034
0.00215535
0.00209153
0.00202887
0.00196732
0.00190686
0.00184747
0.00178909
0.00173172
0.00167531
0.00161984
0.00156528
0.00151161
0.00145881
0.00140684
0.00135569
0.00130532
0.00125573
0.00120689
0.00115877
0.00111135
0.00106462
0.00101859
0.000973241
0.000928559
0.00088448
0.000840904
0.000797745
0.000755045
0.00071308
0.000672366
0.000633406
0.000596157
0.000559353
0.000519946
0.000472895
0.000412055
0.000333411
0.000240833
0.000148751
7.50521e-05
2.91921e-05
8.04015e-06
1.38576e-06
1.2611e-07
4.87956e-09
6.27857e-11
2.84754e-13
7.75403e-14
7.74034e-14
7.71003e-14
7.55054e-14
7.14197e-14
6.48246e-14
5.68523e-14
4.87777e-14
4.12817e-14
3.44343e-14
2.80248e-14
2.18357e-14
1.57797e-14
9.98536e-15
4.92711e-15
1.47318e-15
1.61524e-16
6.52972e-18
3.22019e-18
3.19356e-18
3.19314e-18
3.19314e-18
3.19314e-18
3.19314e-18
3.19314e-18
3.19314e-18
3.19314e-18
3.19314e-18
3.19314e-18
3.19314e-18
3.19314e-18
3.19314e-18
3.19314e-18
3.19314e-18
3.19314e-18
3.19314e-18
3.19314e-18
3.19314e-18
3.19314e-18
3.19314e-18
3.19314e-18
3.19314e-18
3.19314e-18
3.19314e-18
0.00377413
0.00377413
0.00377413
0.00377413
0.00377413
0.00377413
0.00377413
0.00377413
0.00377413
0.00377413
0.00377413
0.00377413
0.00377413
0.00377413
0.00377413
0.00377413
0.00377413
0.00377413
0.00377413
0.00377413
0.00377413
0.00377413
0.00377413
0.00377413
0.00377413
0.00377413
0.00377413
0.00377413
0.00377413
0.00377413
0.00377413
0.00377413
0.00377413
0.00377413
0.00377413
0.00377413
0.00377413
0.00377413
0.00377413
0.00377413
0.00377413
0.00377413
0.00377413
0.00377412
0.00377404
0.00377354
0.00377184
0.00376779
0.00376006
0.00374744
0.003729
0.00370411
0.00367256
0.00363439
0.00358994
0.0035397
0.00348426
0.00342429
0.00336048
0.00329348
0.00322394
0.00315244
0.00307952
0.00300567
0.00293131
0.00285684
0.00278257
0.0027088
0.00263575
0.00256363
0.00249257
0.00242267
0.00235399
0.00228655
0.00222034
0.00215535
0.00209153
0.00202887
0.00196732
0.00190686
0.00184747
0.00178909
0.00173172
0.00167531
0.00161984
0.00156528
0.00151161
0.00145881
0.00140684
0.00135569
0.00130532
0.00125573
0.00120689
0.00115877
0.00111135
0.00106462
0.00101859
0.000973241
0.000928559
0.00088448
0.000840904
0.000797745
0.000755044
0.00071308
0.000672366
0.000633406
0.000596156
0.000559352
0.000519946
0.000472895
0.000412054
0.000333411
0.000240832
0.000148751
7.50515e-05
2.91919e-05
8.04007e-06
1.38575e-06
1.26109e-07
4.8795e-09
6.27849e-11
2.84752e-13
7.75406e-14
7.74037e-14
7.71006e-14
7.55057e-14
7.14199e-14
6.48248e-14
5.68525e-14
4.87779e-14
4.12819e-14
3.44345e-14
2.80249e-14
2.18358e-14
1.57798e-14
9.98541e-15
4.92714e-15
1.47319e-15
1.61527e-16
6.52979e-18
3.22019e-18
3.19356e-18
3.19314e-18
3.19314e-18
3.19314e-18
3.19314e-18
3.19314e-18
3.19314e-18
3.19314e-18
3.19314e-18
3.19314e-18
3.19314e-18
3.19314e-18
3.19314e-18
3.19314e-18
3.19314e-18
3.19314e-18
3.19314e-18
3.19314e-18
3.19314e-18
3.19314e-18
3.19314e-18
3.19314e-18
3.19314e-18
3.19314e-18
3.19314e-18
0.00377413
0.00377413
0.00377413
0.00377413
0.00377413
0.00377413
0.00377413
0.00377413
0.00377413
0.00377413
0.00377413
0.00377413
0.00377413
0.00377413
0.00377413
0.00377413
0.00377413
0.00377413
0.00377413
0.00377413
0.00377413
0.00377413
0.00377413
0.00377413
0.00377413
0.00377413
0.00377413
0.00377413
0.00377413
0.00377413
0.00377413
0.00377413
0.00377413
0.00377413
0.00377413
0.00377413
0.00377413
0.00377413
0.00377413
0.00377413
0.00377413
0.00377413
0.00377413
0.00377412
0.00377404
0.00377354
0.00377184
0.00376779
0.00376006
0.00374744
0.003729
0.00370411
0.00367256
0.00363439
0.00358994
0.0035397
0.00348426
0.00342429
0.00336048
0.00329348
0.00322394
0.00315244
0.00307952
0.00300567
0.00293131
0.00285684
0.00278257
0.0027088
0.00263575
0.00256363
0.00249257
0.00242267
0.00235399
0.00228654
0.00222034
0.00215535
0.00209153
0.00202887
0.00196732
0.00190686
0.00184747
0.00178909
0.00173172
0.00167531
0.00161984
0.00156528
0.00151161
0.00145881
0.00140684
0.00135569
0.00130532
0.00125573
0.00120689
0.00115877
0.00111135
0.00106462
0.00101859
0.000973241
0.000928559
0.00088448
0.000840903
0.000797745
0.000755044
0.000713079
0.000672366
0.000633406
0.000596156
0.000559352
0.000519945
0.000472894
0.000412054
0.00033341
0.000240831
0.00014875
7.50512e-05
2.91917e-05
8.04001e-06
1.38574e-06
1.26108e-07
4.87946e-09
6.27844e-11
2.8475e-13
7.75408e-14
7.74039e-14
7.71008e-14
7.5506e-14
7.14202e-14
6.48251e-14
5.68527e-14
4.87781e-14
4.12821e-14
3.44346e-14
2.8025e-14
2.18359e-14
1.57798e-14
9.98546e-15
4.92717e-15
1.47321e-15
1.61529e-16
6.52986e-18
3.22019e-18
3.19356e-18
3.19314e-18
3.19314e-18
3.19314e-18
3.19314e-18
3.19314e-18
3.19314e-18
3.19314e-18
3.19314e-18
3.19314e-18
3.19314e-18
3.19314e-18
3.19314e-18
3.19314e-18
3.19314e-18
3.19314e-18
3.19314e-18
3.19314e-18
3.19314e-18
3.19314e-18
3.19314e-18
3.19314e-18
3.19314e-18
3.19314e-18
3.19314e-18
0.00377413
0.00377413
0.00377413
0.00377413
0.00377413
0.00377413
0.00377413
0.00377413
0.00377413
0.00377413
0.00377413
0.00377413
0.00377413
0.00377413
0.00377413
0.00377413
0.00377413
0.00377413
0.00377413
0.00377413
0.00377413
0.00377413
0.00377413
0.00377413
0.00377413
0.00377413
0.00377413
0.00377413
0.00377413
0.00377413
0.00377413
0.00377413
0.00377413
0.00377413
0.00377413
0.00377413
0.00377413
0.00377413
0.00377413
0.00377413
0.00377413
0.00377413
0.00377413
0.00377412
0.00377404
0.00377354
0.00377184
0.00376779
0.00376006
0.00374744
0.003729
0.00370411
0.00367256
0.00363439
0.00358994
0.0035397
0.00348426
0.00342429
0.00336048
0.00329348
0.00322394
0.00315244
0.00307952
0.00300566
0.00293131
0.00285684
0.00278257
0.0027088
0.00263575
0.00256363
0.00249257
0.00242267
0.00235399
0.00228654
0.00222034
0.00215535
0.00209153
0.00202886
0.00196732
0.00190686
0.00184747
0.00178909
0.00173172
0.00167531
0.00161984
0.00156528
0.00151161
0.00145881
0.00140684
0.00135569
0.00130532
0.00125573
0.00120689
0.00115877
0.00111135
0.00106462
0.00101859
0.000973241
0.000928559
0.00088448
0.000840903
0.000797744
0.000755044
0.000713079
0.000672365
0.000633406
0.000596156
0.000559352
0.000519945
0.000472894
0.000412053
0.000333409
0.00024083
0.000148749
7.50509e-05
2.91916e-05
8.03997e-06
1.38573e-06
1.26107e-07
4.87942e-09
6.2784e-11
2.84749e-13
7.75411e-14
7.74042e-14
7.7101e-14
7.55062e-14
7.14204e-14
6.48253e-14
5.68529e-14
4.87783e-14
4.12822e-14
3.44348e-14
2.80251e-14
2.1836e-14
1.57799e-14
9.98551e-15
4.9272e-15
1.47322e-15
1.61531e-16
6.52992e-18
3.22019e-18
3.19356e-18
3.19314e-18
3.19314e-18
3.19314e-18
3.19314e-18
3.19314e-18
3.19314e-18
3.19314e-18
3.19314e-18
3.19314e-18
3.19314e-18
3.19314e-18
3.19314e-18
3.19314e-18
3.19314e-18
3.19314e-18
3.19314e-18
3.19314e-18
3.19314e-18
3.19314e-18
3.19314e-18
3.19314e-18
3.19314e-18
3.19314e-18
3.19314e-18
0.00377413
0.00377413
0.00377413
0.00377413
0.00377413
0.00377413
0.00377413
0.00377413
0.00377413
0.00377413
0.00377413
0.00377413
0.00377413
0.00377413
0.00377413
0.00377413
0.00377413
0.00377413
0.00377413
0.00377413
0.00377413
0.00377413
0.00377413
0.00377413
0.00377413
0.00377413
0.00377413
0.00377413
0.00377413
0.00377413
0.00377413
0.00377413
0.00377413
0.00377413
0.00377413
0.00377413
0.00377413
0.00377413
0.00377413
0.00377413
0.00377413
0.00377413
0.00377413
0.00377412
0.00377404
0.00377354
0.00377184
0.00376779
0.00376006
0.00374744
0.003729
0.00370411
0.00367256
0.00363439
0.00358994
0.0035397
0.00348426
0.00342429
0.00336048
0.00329348
0.00322394
0.00315244
0.00307952
0.00300566
0.00293131
0.00285684
0.00278257
0.0027088
0.00263575
0.00256363
0.00249257
0.00242267
0.00235399
0.00228654
0.00222034
0.00215535
0.00209153
0.00202886
0.00196732
0.00190686
0.00184747
0.00178909
0.00173172
0.00167531
0.00161984
0.00156528
0.00151161
0.00145881
0.00140684
0.00135568
0.00130532
0.00125573
0.00120689
0.00115877
0.00111135
0.00106462
0.00101859
0.000973241
0.000928558
0.00088448
0.000840903
0.000797744
0.000755044
0.000713079
0.000672365
0.000633406
0.000596156
0.000559352
0.000519945
0.000472894
0.000412053
0.000333409
0.00024083
0.000148749
7.50506e-05
2.91914e-05
8.03993e-06
1.38572e-06
1.26106e-07
4.87939e-09
6.27836e-11
2.84748e-13
7.75413e-14
7.74044e-14
7.71013e-14
7.55064e-14
7.14207e-14
6.48255e-14
5.68531e-14
4.87785e-14
4.12824e-14
3.44349e-14
2.80253e-14
2.18361e-14
1.578e-14
9.98557e-15
4.92723e-15
1.47323e-15
1.61533e-16
6.52997e-18
3.22019e-18
3.19356e-18
3.19314e-18
3.19314e-18
3.19314e-18
3.19314e-18
3.19314e-18
3.19314e-18
3.19314e-18
3.19314e-18
3.19314e-18
3.19314e-18
3.19314e-18
3.19314e-18
3.19314e-18
3.19314e-18
3.19314e-18
3.19314e-18
3.19314e-18
3.19314e-18
3.19314e-18
3.19314e-18
3.19314e-18
3.19314e-18
3.19314e-18
3.19314e-18
0.00377413
0.00377413
0.00377413
0.00377413
0.00377413
0.00377413
0.00377413
0.00377413
0.00377413
0.00377413
0.00377413
0.00377413
0.00377413
0.00377413
0.00377413
0.00377413
0.00377413
0.00377413
0.00377413
0.00377413
0.00377413
0.00377413
0.00377413
0.00377413
0.00377413
0.00377413
0.00377413
0.00377413
0.00377413
0.00377413
0.00377413
0.00377413
0.00377413
0.00377413
0.00377413
0.00377413
0.00377413
0.00377413
0.00377413
0.00377413
0.00377413
0.00377413
0.00377413
0.00377412
0.00377404
0.00377354
0.00377184
0.00376779
0.00376006
0.00374744
0.003729
0.00370411
0.00367256
0.00363439
0.00358994
0.0035397
0.00348426
0.00342429
0.00336048
0.00329348
0.00322394
0.00315244
0.00307952
0.00300566
0.00293131
0.00285684
0.00278257
0.0027088
0.00263575
0.00256363
0.00249257
0.00242267
0.00235399
0.00228654
0.00222034
0.00215535
0.00209153
0.00202886
0.00196732
0.00190686
0.00184747
0.00178909
0.00173172
0.00167531
0.00161984
0.00156528
0.00151161
0.00145881
0.00140684
0.00135568
0.00130532
0.00125573
0.00120689
0.00115877
0.00111135
0.00106462
0.00101859