/*--------------------------------*- C++ -*----------------------------------*\
  =========                 |
  \\      /  F ield         | OpenFOAM: The Open Source CFD Toolbox
   \\    /   O peration     | Website:  https://openfoam.org
    \\  /    A nd           | Version:  13
     \\/     M anipulation  |
\*---------------------------------------------------------------------------*/
FoamFile
{
    format      ascii;
    class       surfaceScalarField;
    location    "0.0008";
    object      phi;
}
// * * * * * * * * * * * * * * * * * * * * * * * * * * * * * * * * * * * * * //

dimensions      [1 0 -1 0 0 0 0];

internalField   nonuniform List<scalar> 
66301
(
-4.44089e-16
2.22045e-16
-4.44089e-16
3.33067e-16
0
5.55112e-16
0
4.44089e-16
0
0
4.44089e-16
-1.11022e-16
2.22045e-16
0
4.44089e-16
2.22045e-16
3.33067e-16
2.22045e-16
1.11022e-16
-2.22045e-16
0
0
0
2.22045e-16
0
1.11022e-16
3.33067e-16
0
-2.22045e-16
-4.44089e-16
6.66134e-16
-3.33067e-16
5.55112e-16
-4.44089e-16
-1.11022e-16
-2.22045e-16
0
-3.33067e-16
2.22045e-16
-3.33067e-16
0
-6.66134e-16
-2.22045e-16
-3.33067e-16
2.22045e-16
-3.33067e-16
-4.44089e-16
-1.11022e-16
-1.11022e-16
3.33067e-16
4.44089e-16
0
4.44089e-16
0
3.33067e-16
-1.11022e-16
-2.22045e-16
-3.33067e-16
0
-2.22045e-16
1.11022e-16
0
-3.33067e-16
0
0
1.11022e-16
3.33067e-16
2.22045e-16
2.22045e-16
-2.22045e-16
-1.11022e-16
-1.11022e-16
-3.33067e-16
0
-2.22045e-16
3.33067e-16
-3.33067e-16
3.33067e-16
5.77316e-15
-2.22045e-16
4.35492e-11
0
3.66784e-08
1.78413e-13
4.21438e-06
2.54621e-11
9.97765e-05
6.80579e-10
0.000768123
5.96173e-09
0.00291445
2.49694e-08
0.00728625
6.67744e-08
0.0141912
1.35942e-07
0.0235809
2.32316e-07
0.0351789
3.52665e-07
0.0485918
4.923e-07
0.0633951
6.46206e-07
0.0791894
8.09777e-07
0.0956279
9.79151e-07
0.112425
1.15124e-06
0.129352
1.32368e-06
0.146233
1.49485e-06
0.162934
1.66401e-06
0.179353
1.83132e-06
0.195414
1.99078e-06
0.211057
2.15073e-06
0.226235
2.30607e-06
0.240907
2.45564e-06
0.255028
2.60395e-06
0.268543
2.72979e-06
0.281378
2.88049e-06
0.293428
3.04006e-06
0.304546
3.19816e-06
0.314543
3.37234e-06
0.323198
3.57267e-06
0.330302
3.79788e-06
0.335719
4.04264e-06
0.339461
4.29611e-06
0.341722
4.55341e-06
0.342858
4.91426e-06
0.343287
5.31429e-06
0.343303
5.6125e-06
0.343009
4.46717e-06
0.3425
4.76754e-06
0.341994
5.07263e-06
0.341598
5.0423e-06
0.341321
4.9984e-06
0.341108
4.96406e-06
0.340909
4.92372e-06
0.340708
4.91578e-06
0.340516
4.84595e-06
0.340345
4.89263e-06
0.34019
4.78076e-06
0.340029
4.78017e-06
0.339843
4.93101e-06
0.339635
4.56941e-06
0.339432
4.8491e-06
0.339252
4.72008e-06
0.33908
4.61314e-06
0.338887
4.76905e-06
0.338663
4.64158e-06
0.338434
4.19042e-06
0.338234
5.27825e-06
0.338065
5.5312e-06
0.337892
4.58873e-06
0.337683
4.43116e-06
0.337453
4.31139e-06
0.337257
4.22773e-06
0.337093
4.30613e-06
0.336896
3.91624e-06
0.336608
3.65881e-06
0.33626
1.78673e-06
0.335969
-2.02427e-07
0.336135
-2.04485e-06
0.337171
-4.35108e-06
0.340328
-8.97554e-06
0.348408
-1.36485e-05
0.365575
-1.65029e-05
0.398022
-1.74124e-05
0.452815
-1.75076e-05
0.533599
-1.79674e-05
0.631226
-1.58951e-05
0.716947
-9.20484e-06
0.767677
-1.32786e-06
0.782819
-2.83982e-07
0.783454
-2.36605e-06
0.782258
-3.50076e-06
0.780573
-5.43214e-06
0.778158
-7.02469e-06
0.775883
-7.69899e-06
0.774278
-7.58929e-06
0.772989
-7.29566e-06
0.771784
-6.91665e-06
0.770646
-6.62034e-06
0.769439
-6.4242e-06
0.768124
-6.29108e-06
0.766773
-6.23167e-06
0.765284
-6.28922e-06
0.763012
-6.40126e-06
0.757995
-6.44274e-06
0.744446
-6.38893e-06
0.705824
-6.23824e-06
0.600329
-5.79601e-06
0.367376
-4.62854e-06
0.0960111
-2.16506e-06
0.00538049
-3.97158e-07
3.97446e-05
-1.84329e-08
2.67962e-08
-1.22454e-10
1.63103e-12
-5.63993e-14
-3.33067e-16
-1.66533e-16
-6.66134e-16
-3.88578e-16
-5.55112e-17
-2.22045e-16
1.66533e-16
-5.55112e-17
0
-1.66533e-16
4.44089e-16
2.77556e-16
0
-1.66533e-16
-1.11022e-16
-2.77556e-16
-3.88578e-16
-4.996e-16
-3.33067e-16
-1.11022e-16
-8.32667e-16
-5.55112e-17
5.55112e-17
0
2.22045e-16
1.11022e-16
2.22045e-16
5.55112e-17
1.66533e-16
-4.996e-16
1.66533e-16
-4.996e-16
2.22045e-16
-4.996e-16
-3.33067e-16
-2.22045e-16
2.22045e-16
2.77556e-16
-1.11022e-16
-3.88578e-16
-5.55112e-17
-3.33067e-16
-1.66533e-16
-5.55112e-16
2.22045e-16
-3.33067e-16
4.44089e-16
-2.22045e-16
2.22045e-16
-1.11022e-16
2.22045e-16
2.22045e-16
2.22045e-16
7.77156e-16
7.77156e-16
2.22045e-16
-1.11022e-16
2.22045e-16
-2.22045e-16
3.33067e-16
-1.11022e-16
2.22045e-16
-3.33067e-16
2.22045e-16
-2.22045e-16
0
-3.33067e-16
0
-3.33067e-16
1.11022e-16
-6.66134e-16
2.22045e-16
-1.11022e-16
2.22045e-16
-2.22045e-16
2.22045e-16
-3.33067e-16
0
-2.22045e-16
0
-3.33067e-16
-2.22045e-16
0
-1.11022e-16
-2.22045e-16
-4.44089e-16
-5.55112e-16
0
-1.11022e-16
3.33067e-16
0
1.11022e-16
0
3.33067e-16
3.33067e-16
1.11022e-16
3.33067e-16
1.11022e-16
0
1.11022e-16
-1.11022e-16
1.11022e-16
-4.44089e-16
1.11022e-16
-1.11022e-16
-2.22045e-16
-1.11022e-16
-1.11022e-16
-3.33067e-16
0
0
4.44089e-16
-2.22045e-16
-1.11022e-16
-2.22045e-16
-1.11022e-16
-1.11022e-16
-6.66134e-16
-3.33067e-16
-5.55112e-16
-4.44089e-16
5.55112e-15
-3.33067e-16
4.35528e-11
-1.11022e-16
3.668e-08
9.78106e-14
4.21454e-06
1.38446e-11
9.97796e-05
4.19848e-10
0.000768143
4.03599e-09
0.00291452
1.8149e-08
0.00728642
5.1344e-08
0.0141915
1.09246e-07
0.0235815
1.93254e-07
0.03518
3.01455e-07
0.0485934
4.30056e-07
0.0633974
5.7453e-07
0.0791926
7.30443e-07
0.0956322
8.93916e-07
0.11243
1.06178e-06
0.129359
1.23155e-06
0.146242
1.40141e-06
0.162945
1.57034e-06
0.179365
1.73926e-06
0.195428
1.90006e-06
0.211073
2.05774e-06
0.226254
2.21257e-06
0.240928
2.36094e-06
0.255051
2.54941e-06
0.268569
2.66847e-06
0.281408
2.80524e-06
0.29346
2.97604e-06
0.304582
3.14972e-06
0.314582
3.33054e-06
0.323241
3.53656e-06
0.330349
3.76762e-06
0.33577
4.02011e-06
0.339515
4.29271e-06
0.341781
4.57116e-06
0.342922
4.84808e-06
0.343357
5.03499e-06
0.343375
5.57549e-06
0.343088
4.53446e-06
0.342585
4.82012e-06
0.342083
5.00392e-06
0.341693
5.11804e-06
0.34142
4.92873e-06
0.341212
4.92855e-06
0.341018
4.88325e-06
0.340822
4.89415e-06
0.340635
4.76687e-06
0.340469
4.87278e-06
0.340319
4.69709e-06
0.340163
4.66984e-06
0.339981
4.93372e-06
0.339778
4.31953e-06
0.339581
4.90981e-06
0.339405
4.48415e-06
0.339237
4.50945e-06
0.33905
4.5688e-06
0.33883
4.63406e-06
0.338606
3.78399e-06
0.338412
5.14489e-06
0.338248
5.0515e-06
0.338081
3.84273e-06
0.337877
4.13747e-06
0.337651
4.02711e-06
0.33746
3.82336e-06
0.337301
3.64012e-06
0.337108
2.99568e-06
0.336826
2.86572e-06
0.336479
7.05616e-07
0.336188
3.33879e-07
0.336352
-1.91849e-06
0.337381
-2.78214e-06
0.340526
-6.2712e-06
0.348586
-9.40957e-06
0.365726
-1.12604e-05
0.398146
-1.21925e-05
0.452913
-1.37879e-05
0.533675
-1.75592e-05
0.631292
-2.05693e-05
0.717025
-2.10883e-05
0.76778
-1.78091e-05
0.782942
-1.05973e-05
0.783579
-5.91986e-06
0.782382
-6.18485e-06
0.780692
-6.76905e-06
0.778271
-7.17788e-06
0.775988
-7.18076e-06
0.774374
-7.02198e-06
0.773077
-6.72269e-06
0.771864
-6.33929e-06
0.770719
-6.06966e-06
0.769505
-5.90842e-06
0.768183
-5.82004e-06
0.766825
-5.80802e-06
0.765329
-5.86407e-06
0.76305
-5.90503e-06
0.758026
-5.88786e-06
0.744471
-5.81991e-06
0.705842
-5.65885e-06
0.60034
-5.08459e-06
0.367382
-3.44574e-06
0.0960131
-1.48009e-06
0.00538066
-2.36985e-07
3.97462e-05
-9.03192e-09
2.67975e-08
-5.16228e-11
1.63081e-12
-3.03091e-14
-2.22045e-16
2.22045e-16
-6.66134e-16
-4.44089e-16
-2.22045e-16
-2.22045e-16
3.88578e-16
-1.11022e-16
2.77556e-16
-3.88578e-16
0
-3.33067e-16
-5.55112e-17
-3.88578e-16
-5.55112e-16
-3.33067e-16
-2.22045e-16
1.11022e-16
-1.66533e-16
1.11022e-16
-6.10623e-16
-1.11022e-16
5.55112e-17
0
1.66533e-16
0
-1.11022e-16
-1.66533e-16
2.77556e-16
-3.33067e-16
2.77556e-16
-3.33067e-16
6.10623e-16
-3.88578e-16
5.55112e-17
-4.996e-16
-1.66533e-16
-2.22045e-16
-1.11022e-16
-1.66533e-16
0
-5.55112e-17
-3.33067e-16
-2.22045e-16
3.33067e-16
-3.33067e-16
2.22045e-16
-1.11022e-16
1.11022e-16
-3.33067e-16
3.33067e-16
1.11022e-16
4.44089e-16
-1.11022e-16
-2.22045e-16
1.11022e-16
0
3.33067e-16
-1.11022e-16
0
-2.22045e-16
2.22045e-16
-1.11022e-16
-2.22045e-16
-2.22045e-16
0
-2.22045e-16
-1.11022e-16
-3.33067e-16
2.22045e-16
1.11022e-16
1.11022e-16
0
3.33067e-16
-2.22045e-16
3.33067e-16
-4.44089e-16
1.11022e-16
-4.44089e-16
2.22045e-16
-2.22045e-16
-3.33067e-16
-3.33067e-16
-3.33067e-16
-3.33067e-16
0
-3.33067e-16
1.11022e-16
-1.11022e-16
3.33067e-16
0
2.22045e-16
-2.22045e-16
2.22045e-16
-3.33067e-16
0
-1.11022e-16
-3.33067e-16
0
-1.11022e-16
0
3.33067e-16
-1.11022e-16
1.11022e-16
-2.22045e-16
-1.11022e-16
0
1.11022e-16
-1.11022e-16
-3.33067e-16
0
3.33067e-16
2.22045e-16
0
0
-3.33067e-16
-2.22045e-16
-6.66134e-16
-3.33067e-16
-5.55112e-16
-3.33067e-16
5.32907e-15
0
4.35552e-11
-1.11022e-16
3.66817e-08
6.80567e-14
4.21467e-06
1.04328e-11
9.97816e-05
3.24482e-10
0.000768153
3.15839e-09
0.00291455
1.44238e-08
0.00728647
4.1646e-08
0.0141916
9.06456e-08
0.0235816
1.63877e-07
0.0351801
2.60538e-07
0.0485935
3.7768e-07
0.0633975
5.11366e-07
0.0791927
6.57513e-07
0.0956323
8.12402e-07
0.11243
9.7291e-07
0.129359
1.13655e-06
0.146242
1.30144e-06
0.162945
1.46624e-06
0.179365
1.63025e-06
0.195428
1.79148e-06
0.211073
1.9483e-06
0.226254
2.10411e-06
0.240928
2.25982e-06
0.255051
2.4225e-06
0.268569
2.57223e-06
0.281408
2.70734e-06
0.29346
2.86295e-06
0.304582
3.03647e-06
0.314582
3.22089e-06
0.323241
3.4237e-06
0.330349
3.64947e-06
0.33577
3.89545e-06
0.339516
4.1559e-06
0.341782
4.43406e-06
0.342922
4.69319e-06
0.343357
4.88985e-06
0.343375
5.1334e-06
0.343088
4.92976e-06
0.342585
4.77714e-06
0.342083
4.81905e-06
0.341693
4.95547e-06
0.34142
4.90145e-06
0.341212
4.85603e-06
0.341018
4.78931e-06
0.340823
4.82584e-06
0.340635
4.66043e-06
0.340469
4.80002e-06
0.340319
4.59129e-06
0.340163
4.54019e-06
0.339981
4.86526e-06
0.339778
4.10596e-06
0.339581
4.88236e-06
0.339405
4.22835e-06
0.339237
4.41401e-06
0.33905
4.29984e-06
0.338831
4.6035e-06
0.338606
3.3961e-06
0.338412
4.92902e-06
0.338248
4.51734e-06
0.338081
3.17899e-06
0.337877
3.85024e-06
0.337651
3.57959e-06
0.33746
3.31587e-06
0.337301
2.97538e-06
0.337108
2.28627e-06
0.336826
2.35244e-06
0.336479
7.71526e-08
0.336188
-1.34543e-07
0.336352
-1.87497e-06
0.337381
-2.94997e-06
0.340525
-5.25342e-06
0.348584
-7.7379e-06
0.365723
-9.78193e-06
0.39814
-1.1172e-05
0.452903
-1.29762e-05
0.533663
-1.69334e-05
0.631285
-2.17937e-05
0.717025
-2.43691e-05
0.767782
-2.14739e-05
0.782943
-1.28532e-05
0.783579
-8.45438e-06
0.782382
-8.22041e-06
0.780692
-7.78693e-06
0.778271
-7.31579e-06
0.775988
-6.95297e-06
0.774374
-6.66688e-06
0.773077
-6.351e-06
0.771864
-5.99735e-06
0.770719
-5.76112e-06
0.769505
-5.63728e-06
0.768183
-5.59009e-06
0.766825
-5.59452e-06
0.765329
-5.60879e-06
0.76305
-5.59748e-06
0.758025
-5.54409e-06
0.74447
-5.42146e-06
0.705841
-5.13504e-06
0.60034
-4.58569e-06
0.367383
-3.09648e-06
0.0960143
-1.29486e-06
0.00538079
-2.03102e-07
3.97478e-05
-7.43399e-09
2.67991e-08
-3.92565e-11
1.63053e-12
-1.9762e-14
0
-3.88578e-16
-6.10623e-16
-4.996e-16
-2.22045e-16
0
3.88578e-16
-1.11022e-16
1.11022e-16
-3.88578e-16
-1.11022e-16
-6.10623e-16
-5.55112e-17
-4.44089e-16
-2.22045e-16
-6.66134e-16
-2.77556e-16
-4.44089e-16
-4.996e-16
-4.996e-16
-3.33067e-16
-4.996e-16
0
-6.66134e-16
-2.22045e-16
-6.66134e-16
-5.55112e-17
-8.32667e-16
2.77556e-16
-6.10623e-16
1.66533e-16
-4.44089e-16
3.88578e-16
-6.66134e-16
2.77556e-16
-8.88178e-16
-1.66533e-16
-8.32667e-16
-2.22045e-16
-1.66533e-16
-2.22045e-16
-1.11022e-16
-5.55112e-17
-2.22045e-16
3.33067e-16
-4.44089e-16
3.33067e-16
-2.22045e-16
7.77156e-16
2.22045e-16
5.55112e-16
-5.55112e-16
4.44089e-16
2.22045e-16
9.99201e-16
0
4.44089e-16
0
4.44089e-16
1.11022e-16
0
1.11022e-16
1.11022e-16
0
1.11022e-16
0
2.22045e-16
4.44089e-16
-1.11022e-16
1.11022e-16
-2.22045e-16
3.33067e-16
0
1.11022e-16
-2.22045e-16
0
-2.22045e-16
0
-4.44089e-16
1.11022e-16
-3.33067e-16
0
-3.33067e-16
3.33067e-16
-3.33067e-16
0
-2.22045e-16
0
-3.33067e-16
2.22045e-16
0
0
-3.33067e-16
3.33067e-16
-3.33067e-16
1.11022e-16
-2.22045e-16
-3.33067e-16
-3.33067e-16
1.11022e-16
0
2.22045e-16
0
2.22045e-16
-4.44089e-16
0
-1.11022e-16
0
-1.11022e-16
0
-2.22045e-16
0
0
0
-1.11022e-16
-4.44089e-16
0
-6.66134e-16
0
-5.55112e-16
-1.11022e-16
5.77316e-15
-3.33067e-16
4.35573e-11
2.22045e-16
3.66832e-08
5.34017e-14
4.21478e-06
8.52729e-12
9.97833e-05
2.69058e-10
0.000768162
2.64439e-09
0.00291457
1.21707e-08
0.00728651
3.54345e-08
0.0141916
7.78733e-08
0.0235817
1.42271e-07
0.0351802
2.28586e-07
0.0485936
3.34697e-07
0.0633976
4.57366e-07
0.0791928
5.92997e-07
0.0956324
7.38132e-07
0.11243
8.89739e-07
0.129359
1.04532e-06
0.146242
1.20295e-06
0.162945
1.36115e-06
0.179366
1.51879e-06
0.195428
1.67501e-06
0.211073
1.82801e-06
0.226254
1.97951e-06
0.240928
2.1318e-06
0.255052
2.28711e-06
0.26857
2.44095e-06
0.281408
2.58479e-06
0.293461
2.73396e-06
0.304582
2.90266e-06
0.314582
3.08906e-06
0.323241
3.29338e-06
0.330349
3.51932e-06
0.33577
3.76592e-06
0.339516
4.02345e-06
0.341782
4.27542e-06
0.342922
4.51384e-06
0.343357
4.6872e-06
0.343375
4.80497e-06
0.343088
4.89219e-06
0.342585
4.70561e-06
0.342083
4.67813e-06
0.341693
4.76947e-06
0.34142
4.78582e-06
0.341212
4.7495e-06
0.341018
4.66265e-06
0.340822
4.71121e-06
0.340635
4.53125e-06
0.340469
4.66756e-06
0.340319
4.45709e-06
0.340163
4.38187e-06
0.339981
4.71468e-06
0.339778
3.94015e-06
0.339581
4.74239e-06
0.339405
3.97417e-06
0.339237
4.30285e-06
0.33905
3.97358e-06
0.33883
4.53068e-06
0.338606
3.0574e-06
0.338412
4.65823e-06
0.338248
4.02392e-06
0.338081
2.59143e-06
0.337876
3.48301e-06
0.337651
3.17555e-06
0.33746
2.82373e-06
0.3373
2.35728e-06
0.337107
1.64427e-06
0.336825
1.7155e-06
0.336478
-3.98543e-07
0.336188
-7.68203e-07
0.336351
-2.05132e-06
0.337381
-2.81461e-06
0.340524
-4.66084e-06
0.348583
-6.83671e-06
0.365719
-8.87283e-06
0.398133
-1.0594e-05
0.452892
-1.2724e-05
0.533649
-1.62394e-05
0.631273
-1.9893e-05
0.71702
-2.1536e-05
0.767783
-1.95037e-05
0.782945
-1.222e-05
0.783581
-9.3856e-06
0.782382
-9.01774e-06
0.780692
-8.2653e-06
0.778271
-7.55752e-06
0.775988
-6.9991e-06
0.774374
-6.49065e-06
0.773077
-6.15669e-06
0.771864
-5.83974e-06
0.770719
-5.65404e-06
0.769505
-5.55921e-06
0.768182
-5.51219e-06
0.766824
-5.47844e-06
0.765328
-5.43395e-06
0.763049
-5.36876e-06
0.758025
-5.27218e-06
0.74447
-5.12654e-06
0.705841
-4.87758e-06
0.60034
-4.26664e-06
0.367385
-3.0124e-06
0.0960155
-1.26534e-06
0.00538092
-1.98264e-07
3.97493e-05
-7.24871e-09
2.68006e-08
-3.80292e-11
1.63036e-12
-1.87628e-14
2.22045e-16
-3.33067e-16
-2.77556e-16
-1.11022e-16
5.55112e-17
2.77556e-16
0
-1.11022e-16
5.55112e-17
-4.996e-16
-2.22045e-16
-5.55112e-16
-3.33067e-16
-3.33067e-16
5.55112e-17
0
-1.66533e-16
-4.996e-16
-4.996e-16
-5.55112e-16
-2.22045e-16
-3.88578e-16
-3.88578e-16
-6.66134e-16
-5.55112e-17
-2.77556e-16
2.22045e-16
-4.44089e-16
2.77556e-16
-6.66134e-16
0
-6.66134e-16
3.33067e-16
-6.10623e-16
2.22045e-16
-8.32667e-16
2.77556e-16
-8.32667e-16
5.55112e-17
-5.55112e-16
-1.66533e-16
-5.55112e-16
-4.44089e-16
0
2.22045e-16
-2.22045e-16
3.33067e-16
-3.33067e-16
6.66134e-16
-1.11022e-16
5.55112e-16
-3.33067e-16
3.33067e-16
-3.33067e-16
4.44089e-16
0
4.44089e-16
1.11022e-16
4.44089e-16
2.22045e-16
1.11022e-16
1.11022e-16
1.11022e-16
1.11022e-16
0
-1.11022e-16
0
2.22045e-16
-4.44089e-16
2.22045e-16
-3.33067e-16
3.33067e-16
-5.55112e-16
1.11022e-16
-3.33067e-16
2.22045e-16
-3.33067e-16
3.33067e-16
1.11022e-16
3.33067e-16
3.33067e-16
0
3.33067e-16
3.33067e-16
1.11022e-16
-1.11022e-16
-2.22045e-16
2.22045e-16
0
0
0
3.33067e-16
0
3.33067e-16
3.33067e-16
1.11022e-16
-1.11022e-16
-1.11022e-16
0
1.11022e-16
2.22045e-16
3.33067e-16
-3.33067e-16
2.22045e-16
-1.11022e-16
0
-2.22045e-16
0
0
0
0
-1.11022e-16
-2.22045e-16
0
-3.33067e-16
-3.33067e-16
-2.22045e-16
-3.33067e-16
-3.33067e-16
-2.22045e-16
0
6.10623e-15
-1.11022e-16
4.35592e-11
-1.11022e-16
3.66843e-08
4.25215e-14
4.21488e-06
6.84464e-12
9.97849e-05
2.18465e-10
0.00076817
2.17584e-09
0.00291459
1.01535e-08
0.00728655
2.99611e-08
0.0141917
6.66939e-08
0.0235817
1.23343e-07
0.0351803
2.00439e-07
0.0485937
2.9651e-07
0.0633977
4.08863e-07
0.079193
5.34308e-07
0.0956325
6.69671e-07
0.11243
8.1209e-07
0.129359
9.59152e-07
0.146242
1.10892e-06
0.162945
1.25987e-06
0.179366
1.4108e-06
0.195428
1.5608e-06
0.211073
1.709e-06
0.226254
1.85574e-06
0.240928
2.00297e-06
0.255052
2.15199e-06
0.26857
2.30256e-06
0.281408
2.45083e-06
0.293461
2.59879e-06
0.304582
2.76003e-06
0.314582
2.94134e-06
0.323241
3.14348e-06
0.330349
3.36733e-06
0.33577
3.6104e-06
0.339516
3.86615e-06
0.341782
4.10548e-06
0.342922
4.33203e-06
0.343357
4.48559e-06
0.343375
4.61548e-06
0.343088
4.721e-06
0.342585
4.62116e-06
0.342083
4.56232e-06
0.341692
4.57597e-06
0.34142
4.61368e-06
0.341212
4.615e-06
0.341018
4.52565e-06
0.340822
4.57217e-06
0.340635
4.39308e-06
0.340469
4.50111e-06
0.340319
4.30897e-06
0.340163
4.19803e-06
0.339981
4.49975e-06
0.339778
3.79668e-06
0.33958
4.53425e-06
0.339405
3.73165e-06
0.339237
4.17794e-06
0.33905
3.61137e-06
0.33883
4.42155e-06
0.338606
2.7297e-06
0.338412
4.3825e-06
0.338248
3.60822e-06
0.33808
2.10209e-06
0.337876
3.07493e-06
0.337651
2.76836e-06
0.337459
2.37705e-06
0.3373
1.80433e-06
0.337107
1.0933e-06
0.336824
1.09958e-06
0.336477
-7.97579e-07
0.336187
-1.22559e-06
0.33635
-2.28317e-06
0.33738
-2.8264e-06
0.340524
-4.35828e-06
0.348581
-6.09035e-06
0.365717
-7.77161e-06
0.398128
-9.52748e-06
0.452885
-1.15227e-05
0.53364
-1.41384e-05
0.631265
-1.66849e-05
0.717015
-1.7867e-05
0.767783
-1.65178e-05
0.782947
-1.14529e-05
0.783582
-9.51384e-06
0.782383
-9.13102e-06
0.780692
-8.38001e-06
0.778271
-7.66204e-06
0.775988
-6.98707e-06
0.774374
-6.42803e-06
0.773077
-6.06107e-06
0.771864
-5.78624e-06
0.770718
-5.60472e-06
0.769504
-5.49468e-06
0.768182
-5.4208e-06
0.766824
-5.35412e-06
0.765328
-5.28448e-06
0.763049
-5.20275e-06
0.758025
-5.0958e-06
0.74447
-4.94046e-06
0.705841
-4.67235e-06
0.600342
-4.09421e-06
0.367387
-2.9122e-06
0.0960167
-1.22303e-06
0.00538105
-1.91428e-07
3.97508e-05
-7.0055e-09
2.6802e-08
-3.68996e-11
1.63086e-12
-1.89848e-14
6.10623e-16
-5.55112e-17
5.55112e-17
-5.55112e-17
-3.33067e-16
-2.22045e-16
-4.996e-16
-4.44089e-16
2.22045e-16
-4.44089e-16
1.11022e-16
-7.21645e-16
-2.22045e-16
-7.21645e-16
-2.22045e-16
-3.33067e-16
-1.66533e-16
-5.55112e-16
-2.22045e-16
-6.66134e-16
-3.88578e-16
-4.996e-16
-1.11022e-16
-4.996e-16
-1.66533e-16
-2.77556e-16
1.11022e-16
-1.66533e-16
3.33067e-16
-1.66533e-16
5.55112e-17
-4.44089e-16
5.55112e-17
-4.996e-16
2.77556e-16
-4.996e-16
4.44089e-16
-3.88578e-16
4.44089e-16
-3.33067e-16
1.66533e-16
-4.996e-16
-4.996e-16
0
7.77156e-16
-1.11022e-16
7.77156e-16
-1.11022e-16
2.22045e-16
-2.22045e-16
5.55112e-16
-3.33067e-16
3.33067e-16
-3.33067e-16
3.33067e-16
-2.22045e-16
3.33067e-16
-2.22045e-16
3.33067e-16
2.22045e-16
2.22045e-16
1.11022e-16
-1.11022e-16
0
0
-6.66134e-16
-3.33067e-16
3.33067e-16
0
1.11022e-16
-1.11022e-16
3.33067e-16
-4.44089e-16
2.22045e-16
0
2.22045e-16
-3.33067e-16
2.22045e-16
-1.11022e-16
2.22045e-16
-5.55112e-16
1.11022e-16
0
0
3.33067e-16
1.11022e-16
2.22045e-16
1.11022e-16
2.22045e-16
-1.11022e-16
1.11022e-16
2.22045e-16
-1.11022e-16
0
0
3.33067e-16
-3.33067e-16
0
-3.33067e-16
-2.22045e-16
-2.22045e-16
1.11022e-16
2.22045e-16
2.22045e-16
2.22045e-16
2.22045e-16
-1.11022e-16
-2.22045e-16
-3.33067e-16
0
2.22045e-16
0
-1.11022e-16
2.22045e-16
-2.22045e-16
-1.11022e-16
-2.22045e-16
-3.33067e-16
-2.22045e-16
-2.22045e-16
-2.22045e-16
5.44009e-15
-2.22045e-16
4.35604e-11
-1.11022e-16
3.66853e-08
3.36398e-14
4.21496e-06
5.3092e-12
9.97862e-05
1.71758e-10
0.000768177
1.7394e-09
0.00291461
8.26856e-09
0.00728659
2.48468e-08
0.0141918
5.62367e-08
0.0235818
1.0556e-07
0.0351804
1.73821e-07
0.0485938
2.60152e-07
0.0633978
3.6241e-07
0.0791931
4.77837e-07
0.0956327
6.03556e-07
0.112431
7.36887e-07
0.129359
8.75497e-07
0.146242
1.01746e-06
0.162945
1.1612e-06
0.179366
1.30548e-06
0.195428
1.44935e-06
0.211073
1.59224e-06
0.226254
1.73409e-06
0.240928
1.87607e-06
0.255052
2.0197e-06
0.26857
2.16558e-06
0.281408
2.31337e-06
0.293461
2.46221e-06
0.304582
2.61938e-06
0.314582
2.79421e-06
0.323241
2.99099e-06
0.330349
3.21014e-06
0.33577
3.44829e-06
0.339516
3.69685e-06
0.341782
3.93116e-06
0.342923
4.14915e-06
0.343357
4.29442e-06
0.343375
4.44693e-06
0.343088
4.54857e-06
0.342585
4.50755e-06
0.342083
4.45096e-06
0.341692
4.42714e-06
0.34142
4.4387e-06
0.341212
4.45475e-06
0.341018
4.3774e-06
0.340822
4.42111e-06
0.340635
4.25759e-06
0.340469
4.32903e-06
0.340319
4.17474e-06
0.340163
4.02105e-06
0.339981
4.25276e-06
0.339778
3.66353e-06
0.33958
4.28204e-06
0.339405
3.50921e-06
0.339237
4.03671e-06
0.33905
3.25968e-06
0.33883
4.26346e-06
0.338606
2.39306e-06
0.338411
4.11434e-06
0.338247
3.28146e-06
0.33808
1.71511e-06
0.337876
2.70035e-06
0.33765
2.39652e-06
0.337459
1.98131e-06
0.337299
1.33434e-06
0.337106
6.40978e-07
0.336823
5.88843e-07
0.336476
-1.13931e-06
0.336186
-1.56502e-06
0.336349
-2.4984e-06
0.337379
-2.94709e-06
0.340522
-4.22706e-06
0.34858
-5.67048e-06
0.365716
-7.18365e-06
0.398127
-8.61322e-06
0.452883
-1.0014e-05
0.533638
-1.16897e-05
0.631263
-1.33137e-05
0.717015
-1.45053e-05
0.767785
-1.3691e-05
0.782948
-1.05466e-05
0.783583
-9.21814e-06
0.782384
-8.86072e-06
0.780693
-8.2093e-06
0.778271
-7.57491e-06
0.775988
-6.91838e-06
0.774374
-6.3474e-06
0.773077
-5.98868e-06
0.771864
-5.72047e-06
0.770718
-5.53897e-06
0.769504
-5.42415e-06
0.768182
-5.33388e-06
0.766824
-5.25354e-06
0.765328
-5.16305e-06
0.763049
-5.06186e-06
0.758025
-4.93899e-06
0.74447
-4.77098e-06
0.705842
-4.48746e-06
0.600343
-3.92282e-06
0.367389
-2.77939e-06
0.0960179
-1.16507e-06
0.00538117
-1.82344e-07
3.97523e-05
-6.68057e-09
2.68034e-08
-3.5252e-11
1.63092e-12
-1.83742e-14
3.88578e-16
5.55112e-17
-1.66533e-16
-1.11022e-16
-5.55112e-16
-3.88578e-16
-4.44089e-16
-5.55112e-17
-1.11022e-16
-5.55112e-17
5.55112e-17
-2.22045e-16
1.66533e-16
-3.33067e-16
-2.77556e-16
-4.44089e-16
-2.22045e-16
-6.10623e-16
0
-5.55112e-16
-3.33067e-16
-6.66134e-16
0
-3.88578e-16
0
-2.77556e-16
-5.55112e-17
-3.33067e-16
0
-3.88578e-16
0
-5.55112e-16
2.77556e-16
-4.44089e-16
3.33067e-16
-5.55112e-16
2.22045e-16
-3.88578e-16
1.66533e-16
-6.66134e-16
0
-6.10623e-16
-4.996e-16
3.33067e-16
-1.11022e-16
0
-1.11022e-16
-1.11022e-16
-3.33067e-16
-4.44089e-16
2.22045e-16
0
2.22045e-16
-2.22045e-16
-3.33067e-16
-2.22045e-16
2.22045e-16
-1.11022e-16
2.22045e-16
0
1.11022e-16
0
0
0
0
0
-1.11022e-16
1.11022e-16
-2.22045e-16
0
-3.33067e-16
4.44089e-16
0
4.44089e-16
-1.11022e-16
2.22045e-16
-1.11022e-16
1.11022e-16
1.11022e-16
5.55112e-16
-3.33067e-16
3.33067e-16
-1.11022e-16
2.22045e-16
0
1.11022e-16
0
-1.11022e-16
-1.11022e-16
-1.11022e-16
-2.22045e-16
0
-1.11022e-16
1.11022e-16
-2.22045e-16
3.33067e-16
-1.11022e-16
2.22045e-16
-3.33067e-16
3.33067e-16
0
3.33067e-16
-2.22045e-16
2.22045e-16
-2.22045e-16
0
-2.22045e-16
1.11022e-16
-3.33067e-16
0
-3.33067e-16
-1.11022e-16
-2.22045e-16
2.22045e-16
-2.22045e-16
-2.22045e-16
-4.44089e-16
-2.22045e-16
-3.33067e-16
-2.22045e-16
-3.33067e-16
5.66214e-15
-4.44089e-16
4.35626e-11
-5.55112e-16
3.6686e-08
2.58682e-14
4.21502e-06
3.9645e-12
9.97872e-05
1.30545e-10
0.000768182
1.3504e-09
0.00291463
6.56929e-09
0.00728662
2.01836e-08
0.0141918
4.65936e-08
0.0235819
8.89736e-08
0.0351805
1.4872e-07
0.0485939
2.2553e-07
0.063398
3.17826e-07
0.0791932
4.23304e-07
0.0956328
5.39405e-07
0.112431
6.6364e-07
0.129359
7.93773e-07
0.146242
9.27902e-07
0.162945
1.06445e-06
0.179366
1.20214e-06
0.195428
1.34001e-06
0.211074
1.47743e-06
0.226254
1.6143e-06
0.240929
1.75127e-06
0.255052
1.88974e-06
0.26857
2.03101e-06
0.281408
2.17584e-06
0.293461
2.32442e-06
0.304582
2.47989e-06
0.314583
2.64971e-06
0.323242
2.84016e-06
0.330349
3.05288e-06
0.33577
3.28428e-06
0.339516
3.52489e-06
0.341782
3.75476e-06
0.342923
3.96632e-06
0.343357
4.11731e-06
0.343375
4.27255e-06
0.343088
4.37922e-06
0.342584
4.36884e-06
0.342083
4.32879e-06
0.341692
4.29828e-06
0.34142
4.28097e-06
0.341212
4.29558e-06
0.341018
4.2224e-06
0.340822
4.262e-06
0.340635
4.12055e-06
0.340469
4.15627e-06
0.340319
4.05434e-06
0.340163
3.86564e-06
0.339981
4.02421e-06
0.339778
3.5455e-06
0.33958
4.0146e-06
0.339404
3.30559e-06
0.339237
3.86331e-06
0.33905
2.96189e-06
0.33883
4.07635e-06
0.338606
2.06134e-06
0.338411
3.83494e-06
0.338247
2.98764e-06
0.33808
1.3942e-06
0.337875
2.3918e-06
0.33765
2.10615e-06
0.337458
1.66714e-06
0.337299
9.81933e-07
0.337105
3.13274e-07
0.336823
2.34324e-07
0.336475
-1.37712e-06
0.336185
-1.79559e-06
0.336348
-2.63933e-06
0.337377
-3.073e-06
0.340521
-4.10677e-06
0.348579
-5.30929e-06
0.365715
-6.56489e-06
0.398126
-7.72511e-06
0.452883
-8.77035e-06
0.533638
-9.82221e-06
0.631264
-1.07305e-05
0.717016
-1.1768e-05
0.767787
-1.12712e-05
0.78295
-9.42068e-06
0.783585
-8.68248e-06
0.782385
-8.36819e-06
0.780694
-7.82181e-06
0.778272
-7.28419e-06
0.775988
-6.70687e-06
0.774374
-6.18729e-06
0.773077
-5.86004e-06
0.771864
-5.6106e-06
0.770718
-5.43879e-06
0.769504
-5.32355e-06
0.768182
-5.23038e-06
0.766824
-5.13649e-06
0.765328
-5.02923e-06
0.763049
-4.90863e-06
0.758025
-4.76699e-06
0.74447
-4.58159e-06
0.705843
-4.29022e-06
0.600344
-3.73585e-06
0.367391
-2.63897e-06
0.096019
-1.10407e-06
0.00538129
-1.72526e-07
3.97536e-05
-6.31253e-09
2.68047e-08
-3.32726e-11
1.63125e-12
-1.71529e-14
2.22045e-16
-2.77556e-16
-4.44089e-16
-3.33067e-16
-3.33067e-16
-3.88578e-16
-4.44089e-16
-2.77556e-16
-1.66533e-16
-2.22045e-16
-5.55112e-17
-1.11022e-16
-1.11022e-16
-1.66533e-16
-4.44089e-16
-2.22045e-16
-3.33067e-16
-2.77556e-16
-5.55112e-17
-3.33067e-16
5.55112e-17
-3.88578e-16
5.55112e-17
-4.44089e-16
0
-4.44089e-16
-5.55112e-17
-4.44089e-16
0
-6.10623e-16
2.22045e-16
-4.44089e-16
1.66533e-16
-7.77156e-16
3.33067e-16
-6.10623e-16
1.11022e-16
-6.66134e-16
3.33067e-16
-5.55112e-16
3.33067e-16
-3.33067e-16
-4.996e-16
-2.22045e-16
1.11022e-16
-5.55112e-16
2.22045e-16
-1.11022e-16
3.33067e-16
-3.33067e-16
0
-4.44089e-16
2.22045e-16
1.11022e-16
3.33067e-16
0
-1.11022e-16
-2.22045e-16
1.11022e-16
-1.11022e-16
0
-1.11022e-16
0
-5.55112e-16
0
2.22045e-16
-2.22045e-16
-2.22045e-16
-5.55112e-16
2.22045e-16
-5.55112e-16
3.33067e-16
0
2.22045e-16
-5.55112e-16
2.22045e-16
-3.33067e-16
1.11022e-16
0
4.44089e-16
-2.22045e-16
3.33067e-16
-3.33067e-16
-1.11022e-16
-4.44089e-16
0
-4.44089e-16
0
-5.55112e-16
0
-3.33067e-16
0
-3.33067e-16
-1.11022e-16
-3.33067e-16
1.11022e-16
-1.11022e-16
1.11022e-16
-3.33067e-16
1.11022e-16
-5.55112e-16
2.22045e-16
-6.66134e-16
1.11022e-16
-5.55112e-16
-1.11022e-16
-3.33067e-16
-1.11022e-16
-2.22045e-16
0
0
-2.22045e-16
-2.22045e-16
-2.22045e-16
-2.22045e-16
-3.33067e-16
-1.11022e-16
-6.66134e-16
-5.55112e-16
-2.22045e-16
-4.44089e-16
5.9952e-15
2.22045e-16
4.35627e-11
-1.11022e-16
3.66865e-08
1.80966e-14
4.21506e-06
2.82963e-12
9.97879e-05
9.54102e-11
0.000768187
1.01505e-09
0.00291464
5.08443e-09
0.00728665
1.60492e-08
0.0141919
3.79201e-08
0.0235819
7.38438e-08
0.0351805
1.25508e-07
0.048594
1.93096e-07
0.0633981
2.75571e-07
0.0791933
3.71106e-07
0.0956329
4.77499e-07
0.112431
5.92496e-07
0.12936
7.13995e-07
0.146243
8.40147e-07
0.162945
9.69374e-07
0.179366
1.10039e-06
0.195428
1.23218e-06
0.211074
1.36406e-06
0.226255
1.49581e-06
0.240929
1.62781e-06
0.255052
1.76122e-06
0.26857
1.89762e-06
0.281408
2.03847e-06
0.293461
2.185e-06
0.304582
2.33911e-06
0.314583
2.50563e-06
0.323242
2.69049e-06
0.33035
2.89645e-06
0.335771
3.12067e-06
0.339516
3.35394e-06
0.341782
3.57904e-06
0.342923
3.78614e-06
0.343357
3.94375e-06
0.343375
4.09754e-06
0.343088
4.2212e-06
0.342584
4.22635e-06
0.342083
4.19817e-06
0.341692
4.16847e-06
0.34142
4.13501e-06
0.341212
4.13979e-06
0.341018
4.06695e-06
0.340822
4.09968e-06
0.340635
3.97869e-06
0.340469
3.97792e-06
0.340319
3.92935e-06
0.340163
3.71947e-06
0.339981
3.82112e-06
0.339778
3.42772e-06
0.33958
3.76811e-06
0.339404
3.12456e-06
0.339237
3.66271e-06
0.339049
2.72403e-06
0.33883
3.87318e-06
0.338606
1.77839e-06
0.338411
3.56074e-06
0.338247
2.71224e-06
0.338079
1.11525e-06
0.337875
2.1279e-06
0.337649
1.87236e-06
0.337458
1.42332e-06
0.337298
7.41845e-07
0.337105
9.91541e-08
0.336822
1.06055e-08
0.336475
-1.49503e-06
0.336184
-1.90067e-06
0.336347
-2.65054e-06
0.337376
-3.06431e-06
0.34052
-3.94593e-06
0.348578
-4.96991e-06
0.365714
-5.93149e-06
0.398126
-6.79282e-06
0.452882
-7.58206e-06
0.533638
-8.22768e-06
0.631264
-8.7654e-06
0.717017
-9.6322e-06
0.767788
-9.37023e-06
0.782951
-8.43512e-06
0.783586
-8.04888e-06
0.782386
-7.7876e-06
0.780695
-7.33852e-06
0.778273
-6.88798e-06
0.775989
-6.39303e-06
0.774375
-5.94284e-06
0.773078
-5.65599e-06
0.771864
-5.43578e-06
0.770719
-5.28475e-06
0.769504
-5.18006e-06
0.768182
-5.08791e-06
0.766824
-4.98304e-06
0.765328
-4.86166e-06
0.763049
-4.72652e-06
0.758026
-4.57064e-06
0.744471
-4.37352e-06
0.705843
-4.08071e-06
0.600345
-3.54356e-06
0.367392
-2.49781e-06
0.0960201
-1.0429e-06
0.0053814
-1.62619e-07
3.97549e-05
-5.93694e-09
2.68059e-08
-3.12257e-11
1.63114e-12
-1.60427e-14
1.66533e-16
-3.88578e-16
-5.55112e-16
-3.88578e-16
-2.77556e-16
-2.77556e-16
-2.77556e-16
-1.66533e-16
5.55112e-17
-2.22045e-16
-1.66533e-16
-2.22045e-16
-3.88578e-16
-1.66533e-16
-4.44089e-16
5.55112e-17
-4.44089e-16
1.11022e-16
-5.55112e-17
1.66533e-16
-5.55112e-17
-2.22045e-16
1.11022e-16
-3.88578e-16
0
-3.33067e-16
-2.22045e-16
-4.996e-16
5.55112e-17
-4.996e-16
-1.66533e-16
-4.44089e-16
2.77556e-16
-6.10623e-16
2.77556e-16
-4.996e-16
3.88578e-16
-1.66533e-16
4.44089e-16
-1.66533e-16
1.66533e-16
0
5.55112e-17
-2.22045e-16
3.33067e-16
0
3.33067e-16
-3.33067e-16
3.33067e-16
-2.22045e-16
5.55112e-16
-2.22045e-16
0
-3.33067e-16
1.11022e-16
0
2.22045e-16
-2.22045e-16
3.33067e-16
-2.22045e-16
0
-2.22045e-16
0
-2.22045e-16
0
-3.33067e-16
2.22045e-16
0
-2.22045e-16
3.33067e-16
2.22045e-16
-1.11022e-16
1.11022e-16
6.66134e-16
2.22045e-16
4.44089e-16
0
0
1.11022e-16
6.66134e-16
2.22045e-16
4.44089e-16
-3.33067e-16
0
-3.33067e-16
-2.22045e-16
-5.55112e-16
0
-2.22045e-16
0
-2.22045e-16
0
-3.33067e-16
2.22045e-16
-2.22045e-16
0
-2.22045e-16
-3.33067e-16
-4.44089e-16
0
-1.11022e-16
1.11022e-16
-1.11022e-16
5.55112e-16
-1.11022e-16
0
-2.22045e-16