/*--------------------------------*- C++ -*----------------------------------*\
  =========                 |
  \\      /  F ield         | OpenFOAM: The Open Source CFD Toolbox
   \\    /   O peration     | Website:  https://openfoam.org
    \\  /    A nd           | Version:  13
     \\/     M anipulation  |
\*---------------------------------------------------------------------------*/
FoamFile
{
    format      ascii;
    class       volScalarField;
    location    "0.0008";
    object      Qdot;
}
// * * * * * * * * * * * * * * * * * * * * * * * * * * * * * * * * * * * * * //

dimensions      [1 -1 -3 0 0 0 0];

internalField   nonuniform List<scalar> 
33334
(
2.23112e+08
2.23112e+08
2.23112e+08
2.23112e+08
2.23112e+08
2.23112e+08
2.23112e+08
2.23112e+08
2.23112e+08
2.23112e+08
2.23112e+08
2.23112e+08
2.23112e+08
2.23112e+08
2.23112e+08
2.23112e+08
2.23112e+08
2.23112e+08
2.23112e+08
2.23112e+08
2.23112e+08
2.23112e+08
2.23112e+08
2.23112e+08
2.23112e+08
2.23112e+08
2.23112e+08
2.23112e+08
2.23112e+08
2.23112e+08
2.23112e+08
2.23112e+08
2.23112e+08
2.23112e+08
2.23112e+08
2.23112e+08
2.23112e+08
2.23112e+08
2.23112e+08
2.23112e+08
2.23112e+08
2.23112e+08
2.23111e+08
2.23085e+08
2.22801e+08
2.21523e+08
2.18283e+08
2.12468e+08
2.03976e+08
1.93109e+08
1.8042e+08
1.6656e+08
1.52155e+08
1.37738e+08
1.23721e+08
1.10397e+08
9.79553e+07
8.64996e+07
7.60687e+07
6.66618e+07
5.82418e+07
5.07553e+07
4.41376e+07
3.83204e+07
3.32358e+07
2.88203e+07
2.50165e+07
2.17746e+07
1.90519e+07
1.68113e+07
1.50172e+07
1.36302e+07
1.26023e+07
1.18734e+07
1.1373e+07
1.10265e+07
1.07643e+07
1.05527e+07
1.04104e+07
1.02872e+07
1.01536e+07
1.00088e+07
9.85744e+06
9.70473e+06
9.55476e+06
9.40883e+06
9.26576e+06
9.12443e+06
8.98577e+06
8.85218e+06
8.7251e+06
8.603e+06
8.48291e+06
8.36379e+06
8.24749e+06
8.13668e+06
8.03153e+06
7.92885e+06
7.82576e+06
7.72219e+06
7.62023e+06
7.52159e+06
7.42513e+06
7.33173e+06
7.24915e+06
7.18277e+06
7.1271e+06
7.06045e+06
6.94461e+06
6.61961e+06
5.9061e+06
4.50251e+06
2.5309e+06
838995
121628
5804.16
94.8436
1.20319
0.047963
0.0115087
0.00787064
0.00759769
0.00764135
0.00791257
0.00830776
0.00857127
0.00859475
0.0085569
0.00843209
0.0082236
0.00804125
0.00787796
0.00777886
0.00764984
0.00742391
0.00681312
0.00529649
0.00252969
0.000322356
6.37212e-06
2.13496e-07
1.13409e-07
1.11233e-07
1.11225e-07
1.11225e-07
1.11225e-07
1.11225e-07
1.11225e-07
1.11225e-07
1.11225e-07
1.11225e-07
1.11225e-07
1.11225e-07
1.11225e-07
1.11225e-07
1.11225e-07
1.11225e-07
1.11225e-07
1.11225e-07
1.11225e-07
1.11225e-07
1.11225e-07
1.11225e-07
1.11225e-07
1.11225e-07
1.11225e-07
2.23112e+08
2.23112e+08
2.23112e+08
2.23112e+08
2.23112e+08
2.23112e+08
2.23112e+08
2.23112e+08
2.23112e+08
2.23112e+08
2.23112e+08
2.23112e+08
2.23112e+08
2.23112e+08
2.23112e+08
2.23112e+08
2.23112e+08
2.23112e+08
2.23112e+08
2.23112e+08
2.23112e+08
2.23112e+08
2.23112e+08
2.23112e+08
2.23112e+08
2.23112e+08
2.23112e+08
2.23112e+08
2.23112e+08
2.23112e+08
2.23112e+08
2.23112e+08
2.23112e+08
2.23112e+08
2.23112e+08
2.23112e+08
2.23112e+08
2.23112e+08
2.23112e+08
2.23112e+08
2.23112e+08
2.23112e+08
2.23111e+08
2.23085e+08
2.22801e+08
2.21523e+08
2.18283e+08
2.12468e+08
2.03976e+08
1.93109e+08
1.8042e+08
1.6656e+08
1.52155e+08
1.37738e+08
1.23721e+08
1.10397e+08
9.79552e+07
8.64994e+07
7.60686e+07
6.66616e+07
5.82416e+07
5.07551e+07
4.41375e+07
3.83203e+07
3.32357e+07
2.88202e+07
2.50164e+07
2.17744e+07
1.90518e+07
1.68112e+07
1.5017e+07
1.36301e+07
1.26021e+07
1.18732e+07
1.13728e+07
1.10263e+07
1.07642e+07
1.05526e+07
1.04102e+07
1.0287e+07
1.01534e+07
1.00086e+07
9.85726e+06
9.70455e+06
9.55457e+06
9.40864e+06
9.26557e+06
9.12424e+06
8.98559e+06
8.85199e+06
8.72492e+06
8.60281e+06
8.48273e+06
8.36361e+06
8.24732e+06
8.1365e+06
8.03136e+06
7.92868e+06
7.8256e+06
7.72203e+06
7.62006e+06
7.52143e+06
7.42496e+06
7.33157e+06
7.24897e+06
7.18259e+06
7.12689e+06
7.06035e+06
6.94448e+06
6.61973e+06
5.90658e+06
4.50342e+06
2.53188e+06
839525
121737
5810.64
94.9488
1.20414
0.0479819
0.0115092
0.00787023
0.00759713
0.00764077
0.00791195
0.00830715
0.0085707
0.00859423
0.0085564
0.00843163
0.00822316
0.00804084
0.00787756
0.00777849
0.00764952
0.00742364
0.00681292
0.00529638
0.00252968
0.000322362
6.37234e-06
2.13498e-07
1.13409e-07
1.11233e-07
1.11225e-07
1.11225e-07
1.11225e-07
1.11225e-07
1.11225e-07
1.11225e-07
1.11225e-07
1.11225e-07
1.11225e-07
1.11225e-07
1.11225e-07
1.11225e-07
1.11225e-07
1.11225e-07
1.11225e-07
1.11225e-07
1.11225e-07
1.11225e-07
1.11225e-07
1.11225e-07
1.11225e-07
1.11225e-07
1.11225e-07
2.23112e+08
2.23112e+08
2.23112e+08
2.23112e+08
2.23112e+08
2.23112e+08
2.23112e+08
2.23112e+08
2.23112e+08
2.23112e+08
2.23112e+08
2.23112e+08
2.23112e+08
2.23112e+08
2.23112e+08
2.23112e+08
2.23112e+08
2.23112e+08
2.23112e+08
2.23112e+08
2.23112e+08
2.23112e+08
2.23112e+08
2.23112e+08
2.23112e+08
2.23112e+08
2.23112e+08
2.23112e+08
2.23112e+08
2.23112e+08
2.23112e+08
2.23112e+08
2.23112e+08
2.23112e+08
2.23112e+08
2.23112e+08
2.23112e+08
2.23112e+08
2.23112e+08
2.23112e+08
2.23112e+08
2.23112e+08
2.23111e+08
2.23085e+08
2.22801e+08
2.21523e+08
2.18283e+08
2.12468e+08
2.03976e+08
1.93108e+08
1.8042e+08
1.6656e+08
1.52155e+08
1.37738e+08
1.23721e+08
1.10397e+08
9.7955e+07
8.64993e+07
7.60684e+07
6.66615e+07
5.82415e+07
5.0755e+07
4.41373e+07
3.83201e+07
3.32355e+07
2.882e+07
2.50162e+07
2.17743e+07
1.90516e+07
1.6811e+07
1.50168e+07
1.36299e+07
1.26019e+07
1.1873e+07
1.13726e+07
1.10261e+07
1.0764e+07
1.05524e+07
1.041e+07
1.02868e+07
1.01532e+07
1.00084e+07
9.85702e+06
9.70431e+06
9.55432e+06
9.40839e+06
9.26532e+06
9.12399e+06
8.98533e+06
8.85174e+06
8.72465e+06
8.60256e+06
8.48247e+06
8.36335e+06
8.24706e+06
8.13623e+06
8.03109e+06
7.92842e+06
7.82534e+06
7.72175e+06
7.6198e+06
7.52116e+06
7.42472e+06
7.3313e+06
7.24871e+06
7.18229e+06
7.12659e+06
7.0601e+06
6.94428e+06
6.61969e+06
5.90689e+06
4.50419e+06
2.53285e+06
840121
121875
5819.64
95.1111
1.20577
0.0480374
0.0115107
0.00786971
0.00759652
0.00764008
0.00791119
0.00830639
0.00857
0.00859359
0.00855579
0.00843108
0.00822267
0.0080404
0.00787717
0.00777815
0.00764923
0.00742341
0.00681277
0.00529632
0.00252968
0.000322369
6.37254e-06
2.13501e-07
1.13409e-07
1.11233e-07
1.11225e-07
1.11225e-07
1.11225e-07
1.11225e-07
1.11225e-07
1.11225e-07
1.11225e-07
1.11225e-07
1.11225e-07
1.11225e-07
1.11225e-07
1.11225e-07
1.11225e-07
1.11225e-07
1.11225e-07
1.11225e-07
1.11225e-07
1.11225e-07
1.11225e-07
1.11225e-07
1.11225e-07
1.11225e-07
1.11225e-07
2.23112e+08
2.23112e+08
2.23112e+08
2.23112e+08
2.23112e+08
2.23112e+08
2.23112e+08
2.23112e+08
2.23112e+08
2.23112e+08
2.23112e+08
2.23112e+08
2.23112e+08
2.23112e+08
2.23112e+08
2.23112e+08
2.23112e+08
2.23112e+08
2.23112e+08
2.23112e+08
2.23112e+08
2.23112e+08
2.23112e+08
2.23112e+08
2.23112e+08
2.23112e+08
2.23112e+08
2.23112e+08
2.23112e+08
2.23112e+08
2.23112e+08
2.23112e+08
2.23112e+08
2.23112e+08
2.23112e+08
2.23112e+08
2.23112e+08
2.23112e+08
2.23112e+08
2.23112e+08
2.23112e+08
2.23112e+08
2.23111e+08
2.23085e+08
2.22801e+08
2.21523e+08
2.18283e+08
2.12468e+08
2.03976e+08
1.93108e+08
1.8042e+08
1.6656e+08
1.52155e+08
1.37737e+08
1.23721e+08
1.10397e+08
9.79549e+07
8.64992e+07
7.60683e+07
6.66614e+07
5.82414e+07
5.07549e+07
4.41372e+07
3.832e+07
3.32355e+07
2.88199e+07
2.50161e+07
2.17742e+07
1.90515e+07
1.68109e+07
1.50168e+07
1.36298e+07
1.26018e+07
1.18729e+07
1.13725e+07
1.1026e+07
1.07639e+07
1.05524e+07
1.04099e+07
1.02866e+07
1.01531e+07
1.00082e+07
9.85689e+06
9.70417e+06
9.55418e+06
9.40825e+06
9.26517e+06
9.12383e+06
8.98517e+06
8.85157e+06
8.72448e+06
8.60239e+06
8.48229e+06
8.36317e+06
8.24688e+06
8.13605e+06
8.0309e+06
7.92823e+06
7.82514e+06
7.72156e+06
7.6196e+06
7.52098e+06
7.42452e+06
7.33111e+06
7.2485e+06
7.18209e+06
7.12636e+06
7.05989e+06
6.94412e+06
6.61966e+06
5.90707e+06
4.50468e+06
2.53348e+06
840510
121967
5825.76
95.222
1.20687
0.0480611
0.0115121
0.00786944
0.00759616
0.00763968
0.00791075
0.00830596
0.00856962
0.00859326
0.00855549
0.00843082
0.00822246
0.00804022
0.00787702
0.00777803
0.00764914
0.00742336
0.00681275
0.00529633
0.00252971
0.000322377
6.37273e-06
2.13503e-07
1.13409e-07
1.11233e-07
1.11225e-07
1.11225e-07
1.11225e-07
1.11225e-07
1.11225e-07
1.11225e-07
1.11225e-07
1.11225e-07
1.11225e-07
1.11225e-07
1.11225e-07
1.11225e-07
1.11225e-07
1.11225e-07
1.11225e-07
1.11225e-07
1.11225e-07
1.11225e-07
1.11225e-07
1.11225e-07
1.11225e-07
1.11225e-07
1.11225e-07
2.23112e+08
2.23112e+08
2.23112e+08
2.23112e+08
2.23112e+08
2.23112e+08
2.23112e+08
2.23112e+08
2.23112e+08
2.23112e+08
2.23112e+08
2.23112e+08
2.23112e+08
2.23112e+08
2.23112e+08
2.23112e+08
2.23112e+08
2.23112e+08
2.23112e+08
2.23112e+08
2.23112e+08
2.23112e+08
2.23112e+08
2.23112e+08
2.23112e+08
2.23112e+08
2.23112e+08
2.23112e+08
2.23112e+08
2.23112e+08
2.23112e+08
2.23112e+08
2.23112e+08
2.23112e+08
2.23112e+08
2.23112e+08
2.23112e+08
2.23112e+08
2.23112e+08
2.23112e+08
2.23112e+08
2.23112e+08
2.23111e+08
2.23085e+08
2.22801e+08
2.21523e+08
2.18283e+08
2.12468e+08
2.03975e+08
1.93108e+08
1.8042e+08
1.6656e+08
1.52155e+08
1.37737e+08
1.2372e+08
1.10397e+08
9.79548e+07
8.64991e+07
7.60682e+07
6.66613e+07
5.82413e+07
5.07548e+07
4.41372e+07
3.832e+07
3.32354e+07
2.88199e+07
2.50161e+07
2.17742e+07
1.90515e+07
1.68109e+07
1.50167e+07
1.36297e+07
1.26018e+07
1.18729e+07
1.13724e+07
1.1026e+07
1.07638e+07
1.05523e+07
1.04099e+07
1.02866e+07
1.01531e+07
1.00082e+07
9.85686e+06
9.70413e+06
9.55414e+06
9.4082e+06
9.26512e+06
9.12378e+06
8.98512e+06
8.85151e+06
8.72442e+06
8.60232e+06
8.48222e+06
8.3631e+06
8.2468e+06
8.13597e+06
8.03082e+06
7.92815e+06
7.82506e+06
7.72147e+06
7.61952e+06
7.52088e+06
7.42442e+06
7.33101e+06
7.24839e+06
7.18199e+06
7.12626e+06
7.05978e+06
6.94403e+06
6.61962e+06
5.90713e+06
4.50484e+06
2.53369e+06
840643
122000
5828.02
95.2651
1.20732
0.0480479
0.0115128
0.00786937
0.00759606
0.00763956
0.00791062
0.00830582
0.00856952
0.00859318
0.00855542
0.00843076
0.00822241
0.00804018
0.00787699
0.00777802
0.00764914
0.00742337
0.00681277
0.00529636
0.00252973
0.000322385
6.37292e-06
2.13506e-07
1.13409e-07
1.11233e-07
1.11225e-07
1.11225e-07
1.11225e-07
1.11225e-07
1.11225e-07
1.11225e-07
1.11225e-07
1.11225e-07
1.11225e-07
1.11225e-07
1.11225e-07
1.11225e-07
1.11225e-07
1.11225e-07
1.11225e-07
1.11225e-07
1.11225e-07
1.11225e-07
1.11225e-07
1.11225e-07
1.11225e-07
1.11225e-07
1.11225e-07
2.23112e+08
2.23112e+08
2.23112e+08
2.23112e+08
2.23112e+08
2.23112e+08
2.23112e+08
2.23112e+08
2.23112e+08
2.23112e+08
2.23112e+08
2.23112e+08
2.23112e+08
2.23112e+08
2.23112e+08
2.23112e+08
2.23112e+08
2.23112e+08
2.23112e+08
2.23112e+08
2.23112e+08
2.23112e+08
2.23112e+08
2.23112e+08
2.23112e+08
2.23112e+08
2.23112e+08
2.23112e+08
2.23112e+08
2.23112e+08
2.23112e+08
2.23112e+08
2.23112e+08
2.23112e+08
2.23112e+08
2.23112e+08
2.23112e+08
2.23112e+08
2.23112e+08
2.23112e+08
2.23112e+08
2.23112e+08
2.23111e+08
2.23085e+08
2.22801e+08
2.21523e+08
2.18283e+08
2.12468e+08
2.03975e+08
1.93108e+08
1.8042e+08
1.6656e+08
1.52155e+08
1.37737e+08
1.2372e+08
1.10397e+08
9.79547e+07
8.6499e+07
7.60681e+07
6.66612e+07
5.82412e+07
5.07547e+07
4.41371e+07
3.83199e+07
3.32354e+07
2.88198e+07
2.5016e+07
2.17741e+07
1.90515e+07
1.68108e+07
1.50167e+07
1.36297e+07
1.26017e+07
1.18729e+07
1.13724e+07
1.10259e+07
1.07638e+07
1.05523e+07
1.04099e+07
1.02866e+07
1.01531e+07
1.00082e+07
9.85685e+06
9.70413e+06
9.55413e+06
9.40819e+06
9.26511e+06
9.12377e+06
8.98511e+06
8.8515e+06
8.7244e+06
8.60231e+06
8.48221e+06
8.36308e+06
8.24678e+06
8.13595e+06
8.0308e+06
7.92813e+06
7.82503e+06
7.72145e+06
7.61949e+06
7.52085e+06
7.42439e+06
7.33098e+06
7.24836e+06
7.18195e+06
7.12623e+06
7.05975e+06
6.94399e+06
6.6196e+06
5.90712e+06
4.50486e+06
2.53372e+06
840667
122006
5828.45
95.2744
1.20742
0.0480512
0.0115131
0.00786937
0.00759605
0.00763954
0.0079106
0.00830581
0.0085695
0.00859317
0.00855541
0.00843075
0.00822241
0.00804018
0.007877
0.00777802
0.00764915
0.00742339
0.00681279
0.00529639
0.00252976
0.000322392
6.3731e-06
2.13508e-07
1.13409e-07
1.11233e-07
1.11225e-07
1.11225e-07
1.11225e-07
1.11225e-07
1.11225e-07
1.11225e-07
1.11225e-07
1.11225e-07
1.11225e-07
1.11225e-07
1.11225e-07
1.11225e-07
1.11225e-07
1.11225e-07
1.11225e-07
1.11225e-07
1.11225e-07
1.11225e-07
1.11225e-07
1.11225e-07
1.11225e-07
1.11225e-07
1.11225e-07
2.23112e+08
2.23112e+08
2.23112e+08
2.23112e+08
2.23112e+08
2.23112e+08
2.23112e+08
2.23112e+08
2.23112e+08
2.23112e+08
2.23112e+08
2.23112e+08
2.23112e+08
2.23112e+08
2.23112e+08
2.23112e+08
2.23112e+08
2.23112e+08
2.23112e+08
2.23112e+08
2.23112e+08
2.23112e+08
2.23112e+08
2.23112e+08
2.23112e+08
2.23112e+08
2.23112e+08
2.23112e+08
2.23112e+08
2.23112e+08
2.23112e+08
2.23112e+08
2.23112e+08
2.23112e+08
2.23112e+08
2.23112e+08
2.23112e+08
2.23112e+08
2.23112e+08
2.23112e+08
2.23112e+08
2.23112e+08
2.23111e+08
2.23085e+08
2.22801e+08
2.21523e+08
2.18283e+08
2.12468e+08
2.03975e+08
1.93108e+08
1.8042e+08
1.6656e+08
1.52154e+08
1.37737e+08
1.2372e+08
1.10397e+08
9.79546e+07
8.64989e+07
7.60681e+07
6.66611e+07
5.82412e+07
5.07547e+07
4.41371e+07
3.83199e+07
3.32353e+07
2.88198e+07
2.5016e+07
2.17741e+07
1.90514e+07
1.68108e+07
1.50166e+07
1.36297e+07
1.26017e+07
1.18728e+07
1.13724e+07
1.10259e+07
1.07638e+07
1.05523e+07
1.04099e+07
1.02866e+07
1.01531e+07
1.00082e+07
9.85685e+06
9.70413e+06
9.55413e+06
9.4082e+06
9.26512e+06
9.12377e+06
8.98511e+06
8.8515e+06
8.7244e+06
8.60231e+06
8.4822e+06
8.36308e+06
8.24678e+06
8.13595e+06
8.03079e+06
7.92812e+06
7.82503e+06
7.72145e+06
7.61949e+06
7.52085e+06
7.42438e+06
7.33097e+06
7.24835e+06
7.18195e+06
7.12623e+06
7.05974e+06
6.94398e+06
6.61958e+06
5.9071e+06
4.50485e+06
2.53371e+06
840661
122005
5828.43
95.2751
1.20744
0.0480523
0.0115133
0.00786939
0.00759607
0.00763956
0.00791061
0.00830582
0.00856952
0.00859319
0.00855542
0.00843076
0.00822241
0.00804019
0.00787701
0.00777804
0.00764917
0.00742341
0.00681281
0.00529641
0.00252978
0.000322399
6.37327e-06
2.1351e-07
1.13409e-07
1.11233e-07
1.11225e-07
1.11225e-07
1.11225e-07
1.11225e-07
1.11225e-07
1.11225e-07
1.11225e-07
1.11225e-07
1.11225e-07
1.11225e-07
1.11225e-07
1.11225e-07
1.11225e-07
1.11225e-07
1.11225e-07
1.11225e-07
1.11225e-07
1.11225e-07
1.11225e-07
1.11225e-07
1.11225e-07
1.11225e-07
1.11225e-07
2.23112e+08
2.23112e+08
2.23112e+08
2.23112e+08
2.23112e+08
2.23112e+08
2.23112e+08
2.23112e+08
2.23112e+08
2.23112e+08
2.23112e+08
2.23112e+08
2.23112e+08
2.23112e+08
2.23112e+08
2.23112e+08
2.23112e+08
2.23112e+08
2.23112e+08
2.23112e+08
2.23112e+08
2.23112e+08
2.23112e+08
2.23112e+08
2.23112e+08
2.23112e+08
2.23112e+08
2.23112e+08
2.23112e+08
2.23112e+08
2.23112e+08
2.23112e+08
2.23112e+08
2.23112e+08
2.23112e+08
2.23112e+08
2.23112e+08
2.23112e+08
2.23112e+08
2.23112e+08
2.23112e+08
2.23112e+08
2.23111e+08
2.23085e+08
2.22801e+08
2.21523e+08
2.18283e+08
2.12468e+08
2.03975e+08
1.93108e+08
1.8042e+08
1.6656e+08
1.52154e+08
1.37737e+08
1.2372e+08
1.10397e+08
9.79545e+07
8.64988e+07
7.6068e+07
6.66611e+07
5.82411e+07
5.07546e+07
4.4137e+07
3.83198e+07
3.32353e+07
2.88198e+07
2.5016e+07
2.1774e+07
1.90514e+07
1.68108e+07
1.50166e+07
1.36296e+07
1.26017e+07
1.18728e+07
1.13724e+07
1.10259e+07
1.07638e+07
1.05523e+07
1.04099e+07
1.02866e+07
1.01531e+07
1.00082e+07
9.85685e+06
9.70413e+06
9.55413e+06
9.4082e+06
9.26512e+06
9.12377e+06
8.98511e+06
8.8515e+06
8.7244e+06
8.60231e+06
8.4822e+06
8.36308e+06
8.24678e+06
8.13595e+06
8.03079e+06
7.92812e+06
7.82503e+06
7.72145e+06
7.61949e+06
7.52085e+06
7.42439e+06
7.33097e+06
7.24835e+06
7.18195e+06
7.12623e+06
7.05974e+06
6.94398e+06
6.61958e+06
5.90708e+06
4.50481e+06
2.53367e+06
840640
122001
5828.23
95.273
1.20743
0.0480526
0.0115133
0.00786942
0.00759609
0.00763958
0.00791064
0.00830585
0.00856955
0.00859321
0.00855545
0.00843078
0.00822243
0.0080402
0.00787702
0.00777805
0.00764918
0.00742342
0.00681283
0.00529644
0.00252981
0.000322405
6.37344e-06
2.13512e-07
1.13409e-07
1.11233e-07
1.11225e-07
1.11225e-07
1.11225e-07
1.11225e-07
1.11225e-07
1.11225e-07
1.11225e-07
1.11225e-07
1.11225e-07
1.11225e-07
1.11225e-07
1.11225e-07
1.11225e-07
1.11225e-07
1.11225e-07
1.11225e-07
1.11225e-07
1.11225e-07
1.11225e-07
1.11225e-07
1.11225e-07
1.11225e-07
1.11225e-07
2.23112e+08
2.23112e+08
2.23112e+08
2.23112e+08
2.23112e+08
2.23112e+08
2.23112e+08
2.23112e+08
2.23112e+08
2.23112e+08
2.23112e+08
2.23112e+08
2.23112e+08
2.23112e+08
2.23112e+08
2.23112e+08
2.23112e+08
2.23112e+08
2.23112e+08
2.23112e+08
2.23112e+08
2.23112e+08
2.23112e+08
2.23112e+08
2.23112e+08
2.23112e+08
2.23112e+08
2.23112e+08
2.23112e+08
2.23112e+08
2.23112e+08
2.23112e+08
2.23112e+08
2.23112e+08
2.23112e+08
2.23112e+08
2.23112e+08
2.23112e+08
2.23112e+08
2.23112e+08
2.23112e+08
2.23112e+08
2.23111e+08
2.23085e+08
2.22801e+08
2.21523e+08
2.18283e+08
2.12468e+08
2.03975e+08
1.93108e+08
1.8042e+08
1.6656e+08
1.52154e+08
1.37737e+08
1.2372e+08
1.10396e+08
9.79544e+07
8.64987e+07
7.60679e+07
6.6661e+07
5.8241e+07
5.07545e+07
4.41369e+07
3.83197e+07
3.32352e+07
2.88197e+07
2.50159e+07
2.1774e+07
1.90513e+07
1.68107e+07
1.50166e+07
1.36296e+07
1.26017e+07
1.18728e+07
1.13723e+07
1.10259e+07
1.07638e+07
1.05523e+07
1.04099e+07
1.02866e+07
1.01531e+07
1.00082e+07
9.85685e+06
9.70413e+06
9.55413e+06
9.4082e+06
9.26512e+06
9.12378e+06
8.98511e+06
8.8515e+06
8.7244e+06
8.60231e+06
8.4822e+06
8.36309e+06
8.24678e+06
8.13596e+06
8.03079e+06
7.92813e+06
7.82503e+06
7.72145e+06
7.6195e+06
7.52086e+06
7.42439e+06
7.33098e+06
7.24836e+06
7.18196e+06
7.12624e+06
7.05975e+06
6.94398e+06
6.61957e+06
5.90706e+06
4.50477e+06
2.53363e+06
840615
121996
5827.93
95.2688
1.20742
0.0480525
0.0115134
0.00786946
0.00759613
0.00763962
0.00791067
0.00830589
0.00856959
0.00859324
0.00855547
0.0084308
0.00822245
0.00804022
0.00787704
0.00777807
0.0076492
0.00742344
0.00681285
0.00529646
0.00252983
0.000322412
6.37359e-06
2.13514e-07
1.13409e-07
1.11233e-07
1.11225e-07
1.11225e-07
1.11225e-07
1.11225e-07
1.11225e-07
1.11225e-07
1.11225e-07
1.11225e-07
1.11225e-07
1.11225e-07
1.11225e-07
1.11225e-07
1.11225e-07
1.11225e-07
1.11225e-07
1.11225e-07
1.11225e-07
1.11225e-07
1.11225e-07
1.11225e-07
1.11225e-07
1.11225e-07
1.11225e-07
2.23112e+08
2.23112e+08
2.23112e+08
2.23112e+08
2.23112e+08
2.23112e+08
2.23112e+08
2.23112e+08
2.23112e+08
2.23112e+08
2.23112e+08
2.23112e+08
2.23112e+08
2.23112e+08
2.23112e+08
2.23112e+08
2.23112e+08
2.23112e+08
2.23112e+08
2.23112e+08
2.23112e+08
2.23112e+08
2.23112e+08
2.23112e+08
2.23112e+08
2.23112e+08
2.23112e+08
2.23112e+08
2.23112e+08
2.23112e+08
2.23112e+08
2.23112e+08
2.23112e+08
2.23112e+08
2.23112e+08
2.23112e+08
2.23112e+08
2.23112e+08
2.23112e+08
2.23112e+08
2.23112e+08
2.23112e+08
2.23111e+08
2.23085e+08
2.22801e+08
2.21523e+08
2.18283e+08
2.12468e+08
2.03975e+08
1.93108e+08
1.80419e+08
1.66559e+08
1.52154e+08
1.37737e+08
1.2372e+08
1.10396e+08
9.79543e+07
8.64986e+07
7.60678e+07
6.66609e+07
5.82409e+07
5.07545e+07
4.41369e+07
3.83197e+07
3.32352e+07
2.88197e+07
2.50159e+07
2.1774e+07
1.90513e+07
1.68107e+07
1.50165e+07
1.36296e+07
1.26016e+07
1.18728e+07
1.13723e+07
1.10259e+07
1.07638e+07
1.05523e+07
1.04099e+07
1.02866e+07
1.01531e+07
1.00082e+07
9.85685e+06
9.70413e+06
9.55413e+06
9.4082e+06
9.26512e+06
9.12378e+06
8.98512e+06
8.85151e+06
8.72441e+06
8.60231e+06
8.48221e+06
8.36309e+06
8.24678e+06
8.13596e+06
8.0308e+06
7.92813e+06
7.82503e+06
7.72145e+06
7.6195e+06
7.52086e+06
7.4244e+06
7.33098e+06
7.24837e+06
7.18197e+06
7.12625e+06
7.05976e+06
6.94399e+06
6.61958e+06
5.90705e+06
4.50474e+06
2.53359e+06
840594
121991
5827.66
95.2646
1.20739
0.0480522
0.0115134
0.00786949
0.00759615
0.00763964
0.0079107
0.00830592
0.00856961
0.00859327
0.00855549
0.00843082
0.00822246
0.00804024
0.00787706
0.00777809
0.00764922
0.00742346
0.00681287
0.00529649
0.00252985
0.000322418
6.37374e-06
2.13516e-07
1.13409e-07
1.11233e-07
1.11225e-07
1.11225e-07
1.11225e-07
1.11225e-07
1.11225e-07
1.11225e-07
1.11225e-07
1.11225e-07
1.11225e-07
1.11225e-07
1.11225e-07
1.11225e-07
1.11225e-07
1.11225e-07
1.11225e-07
1.11225e-07
1.11225e-07
1.11225e-07
1.11225e-07
1.11225e-07
1.11225e-07
1.11225e-07
1.11225e-07
2.23112e+08
2.23112e+08
2.23112e+08
2.23112e+08
2.23112e+08
2.23112e+08
2.23112e+08
2.23112e+08
2.23112e+08
2.23112e+08
2.23112e+08
2.23112e+08
2.23112e+08
2.23112e+08
2.23112e+08
2.23112e+08
2.23112e+08
2.23112e+08
2.23112e+08
2.23112e+08
2.23112e+08
2.23112e+08
2.23112e+08
2.23112e+08
2.23112e+08
2.23112e+08
2.23112e+08
2.23112e+08
2.23112e+08
2.23112e+08
2.23112e+08
2.23112e+08
2.23112e+08
2.23112e+08
2.23112e+08
2.23112e+08
2.23112e+08
2.23112e+08
2.23112e+08
2.23112e+08
2.23112e+08
2.23112e+08
2.23111e+08
2.23085e+08
2.22801e+08
2.21523e+08
2.18283e+08
2.12468e+08
2.03975e+08
1.93108e+08
1.80419e+08
1.66559e+08
1.52154e+08
1.37737e+08
1.2372e+08
1.10396e+08
9.79542e+07
8.64985e+07
7.60677e+07
6.66608e+07
5.82409e+07
5.07544e+07
4.41368e+07
3.83196e+07
3.32351e+07
2.88196e+07
2.50159e+07
2.17739e+07
1.90513e+07
1.68107e+07
1.50165e+07
1.36296e+07
1.26016e+07
1.18727e+07
1.13723e+07
1.10259e+07
1.07638e+07
1.05523e+07
1.04099e+07
1.02866e+07
1.01531e+07
1.00082e+07
9.85685e+06
9.70413e+06
9.55413e+06
9.4082e+06
9.26512e+06
9.12378e+06
8.98512e+06
8.85151e+06
8.72441e+06
8.60231e+06
8.48221e+06
8.36309e+06
8.24678e+06
8.13596e+06
8.0308e+06
7.92813e+06
7.82504e+06
7.72145e+06
7.6195e+06
7.52086e+06
7.4244e+06
7.33099e+06
7.24837e+06
7.18197e+06
7.12626e+06
7.05977e+06
6.944e+06
6.61958e+06
5.90704e+06
4.50472e+06
2.53357e+06
840579
121988
5827.46
95.2615
1.20736
0.0480519
0.0115134
0.00786952
0.00759618
0.00763967
0.00791073
0.00830594
0.00856964
0.00859329
0.00855551
0.00843084
0.00822248
0.00804026
0.00787708
0.00777811
0.00764925
0.00742349
0.0068129
0.00529651
0.00252987
0.000322423
6.37388e-06
2.13517e-07
1.13409e-07
1.11233e-07
1.11225e-07
1.11225e-07
1.11225e-07
1.11225e-07
1.11225e-07
1.11225e-07
1.11225e-07
1.11225e-07
1.11225e-07
1.11225e-07
1.11225e-07
1.11225e-07
1.11225e-07
1.11225e-07
1.11225e-07
1.11225e-07
1.11225e-07
1.11225e-07
1.11225e-07
1.11225e-07
1.11225e-07
1.11225e-07
1.11225e-07
2.23112e+08
2.23112e+08
2.23112e+08
2.23112e+08
2.23112e+08
2.23112e+08
2.23112e+08
2.23112e+08
2.23112e+08
2.23112e+08
2.23112e+08
2.23112e+08
2.23112e+08
2.23112e+08
2.23112e+08
2.23112e+08
2.23112e+08
2.23112e+08
2.23112e+08
2.23112e+08
2.23112e+08
2.23112e+08
2.23112e+08
2.23112e+08
2.23112e+08
2.23112e+08
2.23112e+08
2.23112e+08
2.23112e+08
2.23112e+08
2.23112e+08
2.23112e+08
2.23112e+08
2.23112e+08
2.23112e+08
2.23112e+08
2.23112e+08
2.23112e+08
2.23112e+08
2.23112e+08
2.23112e+08
2.23112e+08
2.23111e+08
2.23085e+08
2.22801e+08
2.21523e+08
2.18283e+08
2.12468e+08
2.03975e+08
1.93108e+08
1.80419e+08
1.66559e+08
1.52154e+08
1.37737e+08
1.2372e+08
1.10396e+08
9.79541e+07
8.64985e+07
7.60677e+07
6.66608e+07
5.82408e+07
5.07544e+07
4.41368e+07
3.83196e+07
3.32351e+07
2.88196e+07
2.50158e+07
2.17739e+07
1.90512e+07
1.68106e+07
1.50165e+07
1.36295e+07
1.26016e+07
1.18727e+07
1.13723e+07
1.10258e+07
1.07637e+07
1.05523e+07
1.04099e+07
1.02866e+07
1.01531e+07
1.00082e+07
9.85685e+06
9.70412e+06
9.55413e+06
9.4082e+06
9.26512e+06
9.12378e+06
8.98512e+06
8.85151e+06
8.72441e+06
8.60231e+06
8.48221e+06
8.36309e+06
8.24678e+06
8.13597e+06
8.0308e+06
7.92814e+06
7.82504e+06
7.72146e+06
7.61951e+06
7.52087e+06
7.4244e+06
7.33099e+06
7.24838e+06
7.18198e+06
7.12626e+06
7.05978e+06
6.944e+06
6.61959e+06
5.90704e+06
4.50471e+06
2.53355e+06
840570
121986
5827.34
95.2595
1.20735
0.0480516
0.0115134
0.00786955
0.0075962
0.00763969
0.00791075
0.00830596
0.00856965
0.0085933
0.00855553
0.00843085
0.0082225
0.00804028
0.00787711
0.00777814
0.00764927
0.00742351
0.00681292
0.00529654
0.00252989
0.000322429
6.374e-06
2.13519e-07
1.13409e-07
1.11233e-07
1.11225e-07
1.11225e-07
1.11225e-07
1.11225e-07
1.11225e-07
1.11225e-07
1.11225e-07
1.11225e-07
1.11225e-07
1.11225e-07
1.11225e-07
1.11225e-07
1.11225e-07
1.11225e-07
1.11225e-07
1.11225e-07
1.11225e-07
1.11225e-07
1.11225e-07
1.11225e-07
1.11225e-07
1.11225e-07
1.11225e-07
2.23112e+08
2.23112e+08
2.23112e+08
2.23112e+08
2.23112e+08
2.23112e+08
2.23112e+08
2.23112e+08
2.23112e+08
2.23112e+08
2.23112e+08
2.23112e+08
2.23112e+08
2.23112e+08
2.23112e+08
2.23112e+08
2.23112e+08
2.23112e+08
2.23112e+08
2.23112e+08
2.23112e+08
2.23112e+08
2.23112e+08
2.23112e+08
2.23112e+08
2.23112e+08
2.23112e+08
2.23112e+08
2.23112e+08
2.23112e+08
2.23112e+08
2.23112e+08
2.23112e+08
2.23112e+08
2.23112e+08
2.23112e+08
2.23112e+08
2.23112e+08
2.23112e+08
2.23112e+08
2.23112e+08
2.23112e+08
2.23111e+08
2.23085e+08
2.22801e+08
2.21523e+08
2.18283e+08
2.12468e+08
2.03975e+08
1.93108e+08
1.80419e+08
1.66559e+08
1.52154e+08
1.37737e+08
1.2372e+08
1.10396e+08
9.79541e+07
8.64984e+07
7.60676e+07
6.66607e+07
5.82408e+07
5.07543e+07
4.41367e+07
3.83196e+07
3.3235e+07
2.88196e+07
2.50158e+07
2.17739e+07
1.90512e+07
1.68106e+07
1.50164e+07
1.36295e+07
1.26015e+07
1.18727e+07
1.13723e+07
1.10258e+07
1.07637e+07
1.05523e+07
1.04098e+07
1.02866e+07
1.01531e+07
1.00082e+07
9.85684e+06
9.70412e+06
9.55413e+06
9.40819e+06
9.26512e+06
9.12378e+06
8.98512e+06
8.85151e+06
8.72442e+06
8.60232e+06
8.48221e+06
8.36309e+06
8.24679e+06
8.13597e+06
8.0308e+06
7.92814e+06
7.82504e+06
7.72146e+06
7.61951e+06
7.52087e+06
7.42441e+06
7.33099e+06
7.24838e+06
7.18199e+06
7.12627e+06
7.05978e+06
6.94401e+06
6.61959e+06
5.90704e+06
4.5047e+06
2.53354e+06
840563
121984
5827.25
95.2581
1.20733
0.0480515
0.0115135
0.00786958
0.00759622
0.00763971
0.00791077
0.00830598
0.00856967
0.00859332
0.00855554
0.00843087
0.00822252
0.00804031
0.00787713
0.00777817
0.0076493
0.00742354
0.00681295
0.00529656
0.00252991
0.000322434
6.37412e-06
2.1352e-07
1.13409e-07
1.11233e-07
1.11225e-07
1.11225e-07
1.11225e-07
1.11225e-07
1.11225e-07
1.11225e-07
1.11225e-07
1.11225e-07
1.11225e-07
1.11225e-07
1.11225e-07
1.11225e-07
1.11225e-07
1.11225e-07
1.11225e-07
1.11225e-07
1.11225e-07
1.11225e-07
1.11225e-07
1.11225e-07
1.11225e-07
1.11225e-07
1.11225e-07
2.23112e+08
2.23112e+08
2.23112e+08
2.23112e+08
2.23112e+08
2.23112e+08
2.23112e+08
2.23112e+08
2.23112e+08
2.23112e+08
2.23112e+08
2.23112e+08
2.23112e+08
2.23112e+08
2.23112e+08
2.23112e+08
2.23112e+08
2.23112e+08
2.23112e+08
2.23112e+08
2.23112e+08
2.23112e+08
2.23112e+08
2.23112e+08
2.23112e+08
2.23112e+08
2.23112e+08
2.23112e+08
2.23112e+08
2.23112e+08
2.23112e+08
2.23112e+08
2.23112e+08
2.23112e+08
2.23112e+08
2.23112e+08
2.23112e+08
2.23112e+08
2.23112e+08
2.23112e+08
2.23112e+08
2.23112e+08
2.23111e+08
2.23085e+08
2.22801e+08
2.21523e+08
2.18283e+08
2.12468e+08
2.03975e+08
1.93108e+08
1.80419e+08
1.66559e+08
1.52154e+08
1.37737e+08
1.2372e+08
1.10396e+08
9.7954e+07
8.64983e+07
7.60675e+07
6.66607e+07
5.82407e+07
5.07543e+07
4.41367e+07
3.83195e+07
3.3235e+07
2.88195e+07
2.50157e+07
2.17738e+07
1.90512e+07
1.68106e+07
1.50164e+07
1.36295e+07
1.26015e+07
1.18727e+07
1.13722e+07
1.10258e+07
1.07637e+07
1.05522e+07
1.04098e+07
1.02866e+07
1.0153e+07
1.00082e+07
9.85684e+06
9.70412e+06
9.55413e+06
9.4082e+06
9.26512e+06
9.12378e+06
8.98512e+06
8.85151e+06
8.72442e+06
8.60232e+06
8.48222e+06
8.36309e+06
8.24679e+06
8.13597e+06
8.03081e+06
7.92814e+06
7.82505e+06
7.72146e+06
7.61951e+06
7.52088e+06
7.42441e+06
7.331e+06
7.24839e+06
7.18199e+06
7.12627e+06
7.05979e+06
6.94401e+06
6.6196e+06
5.90704e+06
4.5047e+06
2.53353e+06
840558
121983
5827.18
95.257
1.20732
0.0480514
0.0115135
0.0078696
0.00759624
0.00763973
0.00791079
0.008306
0.00856969
0.00859333
0.00855556
0.00843089
0.00822255
0.00804033
0.00787716
0.0077782
0.00764933
0.00742357
0.00681298
0.00529659
0.00252993
0.000322439
6.37423e-06
2.13521e-07
1.13409e-07
1.11233e-07
1.11225e-07
1.11225e-07
1.11225e-07
1.11225e-07
1.11225e-07
1.11225e-07
1.11225e-07
1.11225e-07
1.11225e-07
1.11225e-07
1.11225e-07
1.11225e-07
1.11225e-07
1.11225e-07
1.11225e-07
1.11225e-07
1.11225e-07
1.11225e-07
1.11225e-07
1.11225e-07
1.11225e-07
1.11225e-07
1.11225e-07
2.23112e+08
2.23112e+08
2.23112e+08
2.23112e+08
2.23112e+08
2.23112e+08
2.23112e+08
2.23112e+08
2.23112e+08
2.23112e+08
2.23112e+08
2.23112e+08
2.23112e+08
2.23112e+08
2.23112e+08
2.23112e+08
2.23112e+08
2.23112e+08
2.23112e+08
2.23112e+08
2.23112e+08
2.23112e+08
2.23112e+08
2.23112e+08
2.23112e+08
2.23112e+08
2.23112e+08
2.23112e+08
2.23112e+08
2.23112e+08
2.23112e+08
2.23112e+08
2.23112e+08
2.23112e+08
2.23112e+08
2.23112e+08
2.23112e+08
2.23112e+08
2.23112e+08
2.23112e+08
2.23112e+08
2.23112e+08
2.23111e+08
2.23085e+08
2.22801e+08
2.21523e+08
2.18283e+08
2.12468e+08
2.03975e+08
1.93108e+08
1.80419e+08
1.66559e+08
1.52154e+08
1.37736e+08
1.2372e+08
1.10396e+08
9.7954e+07
8.64983e+07
7.60675e+07
6.66606e+07
5.82407e+07
5.07542e+07
4.41367e+07
3.83195e+07
3.3235e+07
2.88195e+07
2.50157e+07
2.17738e+07
1.90511e+07
1.68105e+07
1.50164e+07
1.36294e+07
1.26015e+07
1.18726e+07
1.13722e+07
1.10258e+07
1.07637e+07
1.05522e+07
1.04098e+07
1.02866e+07
1.0153e+07
1.00082e+07
9.85684e+06
9.70412e+06
9.55413e+06
9.4082e+06
9.26512e+06
9.12378e+06
8.98512e+06
8.85151e+06
8.72442e+06
8.60232e+06
8.48222e+06
8.3631e+06
8.24679e+06
8.13597e+06
8.03081e+06
7.92814e+06
7.82505e+06
7.72147e+06
7.61952e+06
7.52088e+06
7.42442e+06
7.331e+06
7.24839e+06
7.18199e+06
7.12628e+06
7.05979e+06
6.94402e+06
6.6196e+06
5.90704e+06
4.50469e+06
2.53352e+06
840554
121982
5827.12
95.256
1.20732
0.0480514
0.0115135
0.00786962
0.00759626
0.00763975
0.0079108
0.00830601
0.0085697
0.00859335
0.00855558
0.00843091
0.00822257
0.00804036
0.00787719
0.00777822
0.00764935
0.00742359
0.006813
0.00529661
0.00252995
0.000322443
6.37432e-06
2.13522e-07
1.13409e-07
1.11233e-07
1.11225e-07
1.11225e-07
1.11225e-07
1.11225e-07
1.11225e-07
1.11225e-07
1.11225e-07
1.11225e-07
1.11225e-07
1.11225e-07
1.11225e-07
1.11225e-07
1.11225e-07
1.11225e-07
1.11225e-07
1.11225e-07
1.11225e-07
1.11225e-07
1.11225e-07
1.11225e-07
1.11225e-07
1.11225e-07
1.11225e-07
2.23112e+08
2.23112e+08
2.23112e+08
2.23112e+08
2.23112e+08
2.23112e+08
2.23112e+08
2.23112e+08
2.23112e+08
2.23112e+08
2.23112e+08
2.23112e+08
2.23112e+08
2.23112e+08
2.23112e+08
2.23112e+08
2.23112e+08
2.23112e+08
2.23112e+08
2.23112e+08
2.23112e+08
2.23112e+08