/*--------------------------------*- C++ -*----------------------------------*\
  =========                 |
  \\      /  F ield         | OpenFOAM: The Open Source CFD Toolbox
   \\    /   O peration     | Website:  https://openfoam.org
    \\  /    A nd           | Version:  13
     \\/     M anipulation  |
\*---------------------------------------------------------------------------*/
FoamFile
{
    format      ascii;
    class       surfaceScalarField;
    location    "0.0005";
    object      phi;
}
// * * * * * * * * * * * * * * * * * * * * * * * * * * * * * * * * * * * * * //

dimensions      [1 0 -1 0 0 0 0];

internalField   nonuniform List<scalar> 
66301
(
1.11022e-16
2.22045e-16
1.11022e-16
0
2.22045e-16
1.11022e-16
0
2.22045e-16
-1.11022e-16
1.11022e-16
-3.33067e-16
-2.22045e-16
-4.44089e-16
-2.22045e-16
-2.22045e-16
5.55112e-16
-1.11022e-16
2.22045e-16
1.11022e-16
0
1.11022e-16
3.33067e-16
0
2.22045e-16
1.11022e-16
1.11022e-16
2.22045e-16
2.22045e-16
0
0
-2.22045e-16
0
-3.33067e-16
0
0
0
-5.55112e-16
-2.22045e-16
-1.11022e-16
2.22045e-16
-4.44089e-16
0
-3.33067e-16
2.22045e-16
0
2.22045e-16
1.11022e-16
4.44089e-16
-3.33067e-16
1.11022e-16
0
1.11022e-16
1.11022e-16
1.11022e-16
-4.44089e-16
1.11022e-16
-1.11022e-16
2.22045e-16
2.22045e-16
2.22045e-16
4.44089e-16
2.22045e-16
-2.22045e-16
1.11022e-16
-2.22045e-16
4.44089e-16
-2.22045e-16
2.22045e-16
1.11022e-16
1.11022e-16
3.33067e-16
0
0
0
-1.11022e-16
0
3.33067e-16
3.33067e-16
2.22045e-16
0
1.11022e-16
0
0
1.11022e-16
0
2.22045e-16
-1.11022e-16
3.33067e-16
1.11022e-16
1.11022e-16
-1.11022e-16
1.11022e-16
1.11022e-16
2.22045e-16
0
2.22045e-16
2.22045e-16
2.22045e-16
-1.11022e-16
0
2.22045e-16
0
0
0
-3.33067e-16
0
-3.33067e-16
1.11022e-16
-2.22045e-16
2.22045e-16
-2.22045e-16
2.22045e-16
-2.22045e-16
-1.11022e-16
-1.11022e-16
1.11022e-16
-1.11022e-16
0
4.55191e-15
2.22045e-16
4.54993e-11
1.66533e-15
4.86731e-08
2.06057e-13
6.72424e-06
3.6899e-11
0.000180152
1.12724e-09
0.0014798
1.06559e-08
0.00573045
4.61349e-08
0.0142417
1.23812e-07
0.0272075
2.48637e-07
0.0440809
4.15334e-07
0.0639941
6.13941e-07
0.0860287
8.34024e-07
0.109359
1.0665e-06
0.133307
1.30418e-06
0.157344
1.54181e-06
0.181067
1.77617e-06
0.204169
2.00655e-06
0.226393
2.2281e-06
0.247497
2.44933e-06
0.267191
2.67662e-06
0.285089
2.91001e-06
0.300673
3.15671e-06
0.313343
3.42761e-06
0.322619
3.70976e-06
0.328448
4.05596e-06
0.331402
4.50248e-06
0.332456
4.8046e-06
0.33268
5.94668e-06
0.332587
3.98212e-06
0.332084
4.72804e-06
0.33153
5.04365e-06
0.330964
4.79651e-06
0.330471
4.84957e-06
0.330226
4.67333e-06
0.330209
5.0637e-06
0.330281
5.66844e-06
0.330236
4.11045e-06
0.329881
4.16247e-06
0.329594
4.88964e-06
0.329558
4.92256e-06
0.329649
3.49592e-06
0.329649
2.90585e-06
0.329231
3.23075e-06
0.328508
2.03969e-06
0.328498
6.54501e-07
0.330446
-1.22502e-06
0.335257
-4.1634e-06
0.348578
-7.58095e-06
0.378324
-9.49441e-06
0.434281
-1.04034e-05
0.522914
-1.06227e-05
0.630803
-1.11187e-05
0.721694
-6.5312e-06
0.765507
-5.3849e-06
0.77086
-4.8803e-06
0.769562
-5.5957e-06
0.768086
-6.37585e-06
0.766136
-6.46514e-06
0.765014
-6.55752e-06
0.764421
-6.90772e-06
0.762659
-6.91019e-06
0.755535
-6.7136e-06
0.73271
-6.45432e-06
0.66421
-6.08506e-06
0.488731
-5.26895e-06
0.199193
-3.27781e-06
0.0228913
-9.41704e-07
0.000412451
-8.18952e-08
7.79902e-07
-1.36911e-09
1.15228e-10
-1.87556e-12
9.65894e-15
-7.77156e-16
1.11022e-16
-2.22045e-16
1.11022e-16
-3.33067e-16
0
-3.88578e-16
0
-3.88578e-16
-1.11022e-16
-2.22045e-16
-2.22045e-16
-3.33067e-16
1.11022e-16
-1.66533e-16
-1.11022e-16
-4.996e-16
0
-3.88578e-16
-1.66533e-16
-2.77556e-16
-5.55112e-17
-4.44089e-16
0
-4.996e-16
1.66533e-16
-1.11022e-16
6.66134e-16
0
0
-2.22045e-16
5.55112e-17
0
-3.88578e-16
-2.22045e-16
-7.77156e-16
-1.11022e-16
-4.996e-16
1.66533e-16
2.22045e-16
1.11022e-16
5.55112e-17
-2.77556e-16
0
-1.66533e-16
-1.11022e-16
-3.33067e-16
1.11022e-16
-1.66533e-16
0
-4.996e-16
0
-4.996e-16
-2.22045e-16
-4.996e-16
-4.44089e-16
-3.88578e-16
-6.66134e-16
-2.77556e-16
-5.55112e-17
-1.11022e-16
4.44089e-16
-1.66533e-16
2.77556e-16
-2.22045e-16
2.77556e-16
-4.996e-16
-5.55112e-17
-4.996e-16
5.55112e-17
-1.11022e-16
-3.33067e-16
0
2.22045e-16
1.11022e-16
1.11022e-16
2.22045e-16
0
-2.22045e-16
-1.11022e-16
-2.22045e-16
0
-2.22045e-16
1.11022e-16
0
0
-2.22045e-16
0
0
2.22045e-16
0
2.22045e-16
1.11022e-16
1.11022e-16
2.22045e-16
3.33067e-16
4.44089e-16
3.33067e-16
0
1.11022e-16
0
2.22045e-16
-1.11022e-16
-2.22045e-16
0
2.22045e-16
-2.22045e-16
2.22045e-16
-2.22045e-16
2.22045e-16
-3.33067e-16
4.44089e-16
-6.66134e-16
5.55112e-16
-3.33067e-16
1.11022e-16
-1.11022e-16
0
-1.11022e-16
2.22045e-16
-1.11022e-16
2.22045e-16
-1.11022e-16
2.22045e-16
-1.11022e-16
6.66134e-16
-2.22045e-16
2.22045e-16
-3.33067e-16
0
2.22045e-16
4.44089e-16
1.11022e-16
3.33067e-16
0
4.44089e-16
-1.11022e-16
2.22045e-16
1.11022e-16
3.33067e-16
2.22045e-16
0
2.22045e-16
0
1.11022e-16
-1.11022e-16
1.11022e-16
-3.33067e-16
-2.22045e-16
-3.33067e-16
4.44089e-16
2.22045e-16
2.22045e-16
2.22045e-16
2.22045e-16
0
0
0
0
1.11022e-16
0
1.11022e-16
-1.11022e-16
5.55112e-16
2.22045e-16
8.88178e-16
1.11022e-16
2.22045e-16
2.22045e-16
6.66134e-16
1.11022e-16
1.11022e-16
1.11022e-16
-1.11022e-16
1.11022e-16
0
0
-2.22045e-16
0
1.11022e-16
0
1.11022e-16
-2.22045e-16
2.22045e-16
-3.33067e-16
3.33067e-16
-4.44089e-16
0
-3.33067e-16
-3.33067e-16
5.10703e-15
1.11022e-16
4.55009e-11
3.33067e-16
4.86751e-08
1.0969e-13
6.72448e-06
1.9024e-11
0.000180157
6.5474e-10
0.00147984
6.81108e-09
0.00573058
3.18191e-08
0.014242
9.09613e-08
0.0272082
1.92356e-07
0.044082
3.34963e-07
0.063996
5.11815e-07
0.0860315
7.13875e-07
0.109363
9.32418e-07
0.133312
1.16015e-06
0.157351
1.39151e-06
0.181076
1.62284e-06
0.20418
1.85323e-06
0.226407
2.07927e-06
0.247513
2.29639e-06
0.26721
2.52151e-06
0.285111
2.75732e-06
0.300698
3.02057e-06
0.313372
3.34147e-06
0.322651
3.6033e-06
0.328484
3.93171e-06
0.331443
4.33844e-06
0.332501
4.72958e-06
0.332732
5.22093e-06
0.332642
4.65576e-06
0.332145
4.53665e-06
0.331595
4.68044e-06
0.331034
4.73259e-06
0.330547
4.65241e-06
0.330307
4.33547e-06
0.330294
4.93656e-06
0.330372
4.50739e-06
0.330331
4.35684e-06
0.329982
3.86953e-06
0.329699
4.08122e-06
0.329669
4.37118e-06
0.329764
3.38511e-06
0.329767
2.67933e-06
0.329353
2.51088e-06
0.328632
1.49109e-06
0.328623
7.94866e-07
0.330569
-7.33817e-07
0.335374
-2.80997e-06
0.348683
-5.56948e-06
0.378414
-7.14131e-06
0.434356
-8.89822e-06
0.522977
-1.12501e-05
0.630862
-1.48721e-05
0.721761
-1.27391e-05
0.76558
-1.22679e-05
0.770933
-8.0623e-06
0.769633
-7.41567e-06
0.768151
-6.66878e-06
0.766195
-6.37435e-06
0.765064
-6.17355e-06
0.764464
-6.34318e-06
0.762695
-6.17123e-06
0.755564
-5.90738e-06
0.73273
-5.67607e-06
0.664223
-5.32783e-06
0.488738
-4.37012e-06
0.199197
-2.29505e-06
0.0228918
-5.96465e-07
0.000412466
-4.41495e-08
7.79938e-07
-5.91093e-10
1.15234e-10
-9.16267e-13
9.54792e-15
-6.10623e-16
0
-3.33067e-16
5.55112e-17
-4.44089e-16
5.55112e-17
-3.88578e-16
0
-6.10623e-16
-2.22045e-16
-7.21645e-16
-2.77556e-16
-4.996e-16
-1.11022e-16
-3.33067e-16
0
-4.44089e-16
1.11022e-16
-3.33067e-16
-3.33067e-16
-2.77556e-16
-2.22045e-16
-2.77556e-16
2.22045e-16
-4.44089e-16
1.66533e-16
-4.44089e-16
1.11022e-16
-2.22045e-16
1.66533e-16
-2.22045e-16
1.11022e-16
-2.77556e-16
-3.33067e-16
-4.44089e-16
-6.10623e-16
-3.33067e-16
-5.55112e-16
-2.77556e-16
1.11022e-16
-1.66533e-16
1.66533e-16
-3.88578e-16
0
-5.55112e-16
-5.55112e-17
-4.996e-16
-1.11022e-16
-4.44089e-16
-5.55112e-17
-4.44089e-16
5.55112e-17
-4.44089e-16
-5.55112e-17
-5.55112e-16
-3.33067e-16
-7.21645e-16
-3.88578e-16
-3.88578e-16
0
-2.77556e-16
2.77556e-16
-2.77556e-16
-5.55112e-17
-4.996e-16
2.22045e-16
-2.77556e-16
3.88578e-16
-5.55112e-17
-5.55112e-17
-2.22045e-16
0
0
3.33067e-16
0
3.33067e-16
2.22045e-16
2.22045e-16
-2.22045e-16
0
-2.22045e-16
4.44089e-16
-2.22045e-16
2.22045e-16
-1.11022e-16
2.22045e-16
-1.11022e-16
1.11022e-16
-1.11022e-16
2.22045e-16
1.11022e-16
3.33067e-16
2.22045e-16
2.22045e-16
-1.11022e-16
4.44089e-16
2.22045e-16
6.66134e-16
2.22045e-16
5.55112e-16
-2.22045e-16
1.11022e-16
2.22045e-16
-1.11022e-16
0
0
-1.11022e-16
2.22045e-16
0
2.22045e-16
-3.33067e-16
-1.11022e-16
-7.77156e-16
1.11022e-16
-2.22045e-16
2.22045e-16
3.33067e-16
2.22045e-16
-2.22045e-16
3.33067e-16
0
6.66134e-16
3.33067e-16
1.11022e-16
-5.55112e-16
0
-3.33067e-16
2.22045e-16
0
3.33067e-16
1.11022e-16
6.66134e-16
4.44089e-16
6.66134e-16
-1.11022e-16
2.22045e-16
1.11022e-16
6.66134e-16
-3.33067e-16
3.33067e-16
3.33067e-16
2.22045e-16
2.22045e-16
0
-3.33067e-16
0
1.11022e-16
0
2.22045e-16
4.44089e-16
2.22045e-16
1.11022e-16
2.22045e-16
1.11022e-16
-2.22045e-16
1.11022e-16
1.11022e-16
2.22045e-16
0
2.22045e-16
2.22045e-16
1.11022e-16
1.11022e-16
1.11022e-16
-3.33067e-16
-1.11022e-16
2.22045e-16
3.33067e-16
-1.11022e-16
0
0
1.11022e-16
4.44089e-16
2.22045e-16
0
-2.22045e-16
3.33067e-16
0
-1.11022e-16
0
0
3.33067e-16
-1.11022e-16
0
-3.33067e-16
1.11022e-16
-3.33067e-16
2.22045e-16
-1.11022e-16
2.22045e-16
4.77396e-15
0
4.55036e-11
7.77156e-16
4.86772e-08
6.9722e-14
6.72468e-06
1.30257e-11
0.000180161
4.66135e-10
0.00147986
4.96029e-09
0.00573062
2.37541e-08
0.0142421
6.99316e-08
0.0272083
1.52536e-07
0.0440821
2.73397e-07
0.0639961
4.28189e-07
0.0860316
6.09521e-07
0.109363
8.09579e-07
0.133312
1.02154e-06
0.157351
1.24005e-06
0.181076
1.46129e-06
0.20418
1.68289e-06
0.226407
1.90413e-06
0.247513
2.11993e-06
0.26721
2.34122e-06
0.285111
2.57734e-06
0.300698
2.84007e-06
0.313372
3.14265e-06
0.322651
3.4476e-06
0.328484
3.77503e-06
0.331443
4.10217e-06
0.332501
4.43727e-06
0.332731
4.53151e-06
0.332642
4.75073e-06
0.332145
4.41411e-06
0.331595
4.40663e-06
0.331034
4.51874e-06
0.330547
4.60824e-06
0.330307
4.26645e-06
0.330294
4.4557e-06
0.330372
4.05643e-06
0.330331
4.05964e-06
0.329982
3.79247e-06
0.329699
3.62122e-06
0.329669
3.52408e-06
0.329764
2.99476e-06
0.329767
2.44536e-06
0.329353
1.97767e-06
0.328632
8.64473e-07
0.328623
4.91525e-07
0.330569
-5.17393e-07
0.335374
-2.41689e-06
0.348682
-4.87455e-06
0.378411
-6.51028e-06
0.434351
-8.51083e-06
0.52297
-1.07836e-05
0.630858
-1.42974e-05
0.721762
-1.36336e-05
0.765581
-1.29004e-05
0.770934
-8.29042e-06
0.769633
-7.53791e-06
0.768152
-6.74107e-06
0.766195
-6.37696e-06
0.765064
-6.10592e-06
0.764464
-5.81243e-06
0.762694
-5.61326e-06
0.755563
-5.361e-06
0.732729
-5.08832e-06
0.664223
-4.64452e-06
0.488739
-3.75998e-06
0.199198
-2.01311e-06
0.0228923
-5.12237e-07
0.00041248
-3.68247e-08
7.79979e-07
-4.62844e-10
1.15242e-10
-6.4615e-13
9.60343e-15
-4.996e-16
1.66533e-16
-4.44089e-16
5.55112e-17
-3.33067e-16
-1.66533e-16
-6.66134e-16
-1.66533e-16
-7.77156e-16
0
-6.10623e-16
-5.55112e-17
-7.21645e-16
-1.11022e-16
-5.55112e-16
1.11022e-16
-1.11022e-16
0
-1.66533e-16
-1.11022e-16
-1.11022e-16
-1.66533e-16
-1.66533e-16
0
-3.33067e-16
3.33067e-16
-3.88578e-16
2.77556e-16
-7.21645e-16
2.22045e-16
-7.21645e-16
-1.11022e-16
-7.21645e-16
-3.88578e-16
-3.88578e-16
-3.33067e-16
-2.22045e-16
-4.44089e-16
-3.33067e-16
-5.55112e-17
-5.55112e-16
0
-2.22045e-16
0
-5.55112e-16
0
-6.10623e-16
-5.55112e-17
-3.33067e-16
-5.55112e-17
-4.44089e-16
-1.11022e-16
-4.44089e-16
-1.11022e-16
-5.55112e-16
-1.66533e-16
-7.77156e-16
-2.22045e-16
-4.996e-16
1.11022e-16
-4.44089e-16
1.11022e-16
-3.88578e-16
1.11022e-16
-2.22045e-16
4.996e-16
-1.66533e-16
2.77556e-16
-1.66533e-16
1.11022e-16
-3.88578e-16
-3.88578e-16
-2.22045e-16
-2.22045e-16
-2.22045e-16
1.11022e-16
2.22045e-16
4.44089e-16
0
4.44089e-16
-2.22045e-16
1.11022e-16
-3.33067e-16
2.22045e-16
-2.22045e-16
1.11022e-16
0
3.33067e-16
-1.11022e-16
1.11022e-16
1.11022e-16
1.11022e-16
2.22045e-16
2.22045e-16
1.11022e-16
0
0
-1.11022e-16
0
1.11022e-16
-1.11022e-16
1.11022e-16
0
0
0
1.11022e-16
-2.22045e-16
2.22045e-16
-1.11022e-16
0
-1.11022e-16
1.11022e-16
-3.33067e-16
3.33067e-16
-2.22045e-16
4.44089e-16
-1.11022e-16
1.11022e-16
-1.11022e-16
2.22045e-16
-3.33067e-16
1.11022e-16
-2.22045e-16
0
-2.22045e-16
1.11022e-16
-3.33067e-16
1.11022e-16
-1.11022e-16
2.22045e-16
0
2.22045e-16
0
1.11022e-16
0
4.44089e-16
-1.11022e-16
1.11022e-16
-2.22045e-16
-1.11022e-16
1.11022e-16
3.33067e-16
4.44089e-16
5.55112e-16
0
0
2.22045e-16
1.11022e-16
2.22045e-16
-1.11022e-16
1.11022e-16
-2.22045e-16
4.44089e-16
1.11022e-16
-1.11022e-16
2.22045e-16
3.33067e-16
1.11022e-16
0
0
2.22045e-16
2.22045e-16
2.22045e-16
4.44089e-16
1.11022e-16
2.22045e-16
-2.22045e-16
-1.11022e-16
0
1.11022e-16
-2.22045e-16
1.11022e-16
-1.11022e-16
0
1.11022e-16
1.11022e-16
3.33067e-16
1.11022e-16
0
5.55112e-16
0
4.44089e-16
-1.11022e-16
1.11022e-16
-5.55112e-16
-1.11022e-16
-5.55112e-16
4.44089e-16
-3.33067e-16
4.44089e-16
4.996e-15
-1.11022e-16
4.55059e-11
8.88178e-16
4.86788e-08
4.88498e-14
6.72483e-06
9.52194e-12
0.000180163
3.49423e-10
0.00147987
3.79533e-09
0.00573067
1.85128e-08
0.0142422
5.55032e-08
0.0272084
1.23321e-07
0.0440823
2.251e-07
0.0639963
3.58649e-07
0.0860318
5.18519e-07
0.109363
6.98201e-07
0.133313
8.91565e-07
0.157351
1.09353e-06
0.181076
1.30024e-06
0.20418
1.50904e-06
0.226407
1.71843e-06
0.247513
1.9273e-06
0.26721
2.13981e-06
0.285111
2.36707e-06
0.300698
2.62069e-06
0.313372
2.91199e-06
0.322651
3.22565e-06
0.328484
3.55448e-06
0.331443
3.82892e-06
0.332501
4.15875e-06
0.332731
4.22621e-06
0.332642
4.48815e-06
0.332145
4.27338e-06
0.331595
4.22217e-06
0.331034
4.18029e-06
0.330547
4.39551e-06
0.330307
4.17232e-06
0.330294
4.06624e-06
0.330372
3.81573e-06
0.330331
3.64603e-06
0.329982
3.50662e-06
0.329699
3.26066e-06
0.329669
2.90347e-06
0.329764
2.48325e-06
0.329767
2.06429e-06
0.329352
1.59405e-06
0.328631
4.62592e-07
0.328622
1.69956e-07
0.330568
-7.72586e-07
0.335373
-2.24666e-06
0.348681
-4.15973e-06
0.378408
-5.74801e-06
0.434346
-7.66194e-06
0.522964
-9.36408e-06
0.630853
-1.1899e-05
0.721761
-1.16592e-05
0.765581
-1.12544e-05
0.770934
-7.85351e-06
0.769634
-7.29199e-06
0.768152
-6.60484e-06
0.766195
-6.23304e-06
0.765063
-5.79106e-06
0.764463
-5.35175e-06
0.762694
-5.18167e-06
0.755562
-4.94892e-06
0.732729
-4.71196e-06
0.664223
-4.35553e-06
0.48874
-3.46831e-06
0.1992
-1.9301e-06
0.0228927
-4.88334e-07
0.000412493
-3.48595e-08
7.80017e-07
-4.35281e-10
1.1525e-10
-5.97689e-13
9.49241e-15
-3.88578e-16
5.55112e-17
-4.996e-16
-1.11022e-16
-6.10623e-16
-2.77556e-16
-9.4369e-16
5.55112e-17
-8.32667e-16
-1.66533e-16
-8.88178e-16
-1.66533e-16
-4.44089e-16
2.77556e-16
-2.77556e-16
3.33067e-16
-5.55112e-17
1.11022e-16
-3.33067e-16
-2.77556e-16
-4.44089e-16
-3.88578e-16
-4.44089e-16
-2.77556e-16
-2.22045e-16
2.77556e-16
-4.996e-16
2.77556e-16
-6.10623e-16
2.77556e-16
-7.77156e-16
5.55112e-17
-7.77156e-16
-2.22045e-16
-5.55112e-16
-5.55112e-16
-6.10623e-16
-4.996e-16
-2.22045e-16
5.55112e-17
-4.44089e-16
-2.77556e-16
-3.88578e-16
0
-3.33067e-16
3.33067e-16
-2.22045e-16
-1.66533e-16
-6.10623e-16
0
-3.88578e-16
-2.22045e-16
-6.66134e-16
-2.22045e-16
-6.10623e-16
1.66533e-16
-5.55112e-16
0
-6.10623e-16
0
-3.88578e-16
3.33067e-16
-2.22045e-16
5.55112e-17
-3.88578e-16
4.996e-16
-1.11022e-16
5.55112e-17
-4.996e-16
0
-5.55112e-16
-6.66134e-16
2.22045e-16
-2.22045e-16
1.11022e-16
-5.55112e-16
1.11022e-16
-1.11022e-16
-1.11022e-16
0
-1.11022e-16
0
-2.22045e-16
-1.11022e-16
0
-2.22045e-16
-2.22045e-16
-1.11022e-16
-1.11022e-16
4.44089e-16
4.44089e-16
1.11022e-16
1.11022e-16
-2.22045e-16
1.11022e-16
0
3.33067e-16
-3.33067e-16
0
-2.22045e-16
1.11022e-16
0
0
-2.22045e-16
0
-4.44089e-16
-3.33067e-16
-2.22045e-16
-3.33067e-16
4.44089e-16
-3.33067e-16
5.55112e-16
-4.44089e-16
-3.33067e-16
-1.11022e-16
0
0
2.22045e-16
-2.22045e-16
3.33067e-16
-2.22045e-16
3.33067e-16
-2.22045e-16
3.33067e-16
-2.22045e-16
3.33067e-16
-2.22045e-16
5.55112e-16
0
2.22045e-16
2.22045e-16
2.22045e-16
1.11022e-16
2.22045e-16
-2.22045e-16
-1.11022e-16
-3.33067e-16
-3.33067e-16
0
-1.11022e-16
0
1.11022e-16
0
1.11022e-16
1.11022e-16
1.11022e-16
-2.22045e-16
0
1.11022e-16
3.33067e-16
2.22045e-16
0
3.33067e-16
1.11022e-16
2.22045e-16
2.22045e-16
0
2.22045e-16
1.11022e-16
0
2.22045e-16
2.22045e-16
0
-1.11022e-16
3.33067e-16
3.33067e-16
-3.33067e-16
2.22045e-16
0
2.22045e-16
-3.33067e-16
5.55112e-16
3.33067e-16
1.11022e-16
1.11022e-16
1.11022e-16
3.33067e-16
2.22045e-16
0
0
-2.22045e-16
0
-4.44089e-16
2.22045e-16
0
0
-3.33067e-16
-2.22045e-16
-5.55112e-16
-2.22045e-16
4.66294e-15
-3.33067e-16
4.55085e-11
4.44089e-16
4.868e-08
3.44169e-14
6.72495e-06
6.66489e-12
0.000180165
2.50405e-10
0.00147989
2.79504e-09
0.0057307
1.40224e-08
0.0142423
4.31599e-08
0.0272085
9.81845e-08
0.0440824
1.8305e-07
0.0639964
2.97223e-07
0.086032
4.36912e-07
0.109363
5.96812e-07
0.133313
7.71506e-07
0.157351
9.56289e-07
0.181077
1.14747e-06
0.20418
1.34238e-06
0.226407
1.53936e-06
0.247513
1.7383e-06
0.26721
1.94133e-06
0.285111
2.1571e-06
0.300698
2.39758e-06
0.313372
2.67277e-06
0.322651
2.97706e-06
0.328484
3.30073e-06
0.331443
3.56895e-06
0.332501
3.84545e-06
0.332731
4.0057e-06
0.332642
4.14666e-06
0.332145
4.06912e-06
0.331595
4.02891e-06
0.331034
3.91584e-06
0.330547
4.03803e-06
0.330307
3.94161e-06
0.330293
3.78202e-06
0.330372
3.54885e-06
0.330331
3.32002e-06
0.329982
3.0921e-06
0.329698
2.88449e-06
0.329668
2.47268e-06
0.329763
2.0679e-06
0.329766
1.70654e-06
0.329352
1.2405e-06
0.32863
1.66708e-07
0.328621
-1.03212e-07
0.330567
-1.0235e-06
0.335372
-2.14522e-06
0.34868
-3.80433e-06
0.378408
-5.15631e-06
0.434345
-6.49699e-06
0.522963
-7.53454e-06
0.630852
-9.11421e-06
0.72176
-9.33483e-06
0.765581
-9.47283e-06
0.770935
-7.13575e-06
0.769634
-6.70335e-06
0.768152
-6.18508e-06
0.766195
-5.87919e-06
0.765063
-5.40748e-06
0.764463
-5.00081e-06
0.762694
-4.84264e-06
0.755562
-4.65334e-06
0.732729
-4.45133e-06
0.664223
-4.08972e-06
0.488742
-3.26921e-06
0.199202
-1.80561e-06
0.0228931
-4.5215e-07
0.000412505
-3.20256e-08
7.80051e-07
-3.98653e-10
1.15257e-10
-5.4845e-13
9.54792e-15
-4.44089e-16
-5.55112e-17
-4.44089e-16
-2.22045e-16
-5.55112e-16
-2.77556e-16
-3.88578e-16
0
-2.22045e-16
3.33067e-16
-3.88578e-16
0
-5.55112e-16
2.77556e-16
-1.66533e-16
1.66533e-16
-4.996e-16
0
-7.21645e-16
-2.22045e-16
-9.99201e-16
-1.66533e-16
-4.996e-16
-1.11022e-16
-2.77556e-16
-5.55112e-17
-6.10623e-16
1.11022e-16
-4.44089e-16
1.66533e-16
-5.55112e-16
1.66533e-16
-4.44089e-16
-1.11022e-16
-4.44089e-16
-2.77556e-16
-7.21645e-16
-5.55112e-16
-3.88578e-16
5.55112e-17
-3.88578e-16
-3.33067e-16
-5.55112e-16
-1.11022e-16
-1.66533e-16
-5.55112e-17
5.55112e-17
5.55112e-17
0
-2.77556e-16
-1.11022e-16
-2.22045e-16
-3.33067e-16
-1.11022e-16
-2.22045e-16
1.11022e-16
-1.66533e-16
0
-2.22045e-16
3.88578e-16
0
5.55112e-17
-4.996e-16
3.33067e-16
-2.22045e-16
2.77556e-16
-3.88578e-16
0
-6.66134e-16
0
-7.21645e-16
-3.88578e-16
5.55112e-16
-3.33067e-16
7.77156e-16
-2.22045e-16
0
-1.11022e-16
-4.44089e-16
-2.22045e-16
0
0
-5.55112e-16
-1.11022e-16
1.11022e-16
0
0
0
-2.22045e-16
-1.11022e-16
3.33067e-16
0
1.11022e-16
-1.11022e-16
-1.11022e-16
-1.11022e-16
3.33067e-16
2.22045e-16
1.11022e-16
0
-1.11022e-16
0
1.11022e-16
3.33067e-16
1.11022e-16
2.22045e-16
7.77156e-16
1.11022e-16
-3.33067e-16
1.11022e-16
-8.88178e-16
0
-4.44089e-16
0
2.22045e-16
3.33067e-16
2.22045e-16
6.66134e-16
-2.22045e-16
1.11022e-16
-3.33067e-16
4.44089e-16
-3.33067e-16
4.44089e-16
-3.33067e-16
3.33067e-16
-5.55112e-16
0
-3.33067e-16
3.33067e-16
3.33067e-16
4.44089e-16
1.11022e-16
0
-3.33067e-16
0
-1.11022e-16
2.22045e-16
0
2.22045e-16
0
3.33067e-16
-1.11022e-16
1.11022e-16
0
6.66134e-16
-1.11022e-16
-1.11022e-16
1.11022e-16
1.11022e-16
5.55112e-16
4.44089e-16
3.33067e-16
-1.11022e-16
0
1.11022e-16
1.11022e-16
4.44089e-16
1.11022e-16
0
-2.22045e-16
0
3.33067e-16
-2.22045e-16
2.22045e-16
-1.11022e-16
0
0
1.11022e-16
0
-5.55112e-16
-3.33067e-16
2.22045e-16
1.11022e-16
-2.22045e-16
2.22045e-16
0
3.33067e-16
0
3.33067e-16
0
4.44089e-16
-4.44089e-16
2.22045e-16
-2.22045e-16
0
-4.44089e-16
2.22045e-16
-5.55112e-16
3.33067e-16
4.10783e-15
2.22045e-16
4.55104e-11
-1.11022e-16
4.86808e-08
2.26485e-14
6.72503e-06
4.34119e-12
0.000180167
1.6826e-10
0.0014799
1.94872e-09
0.00573073
1.01582e-08
0.0142423
3.23826e-08
0.0272086
7.59202e-08
0.0440825
1.45215e-07
0.0639966
2.41044e-07
0.0860321
3.61152e-07
0.109364
5.01514e-07
0.133313
6.57558e-07
0.157351
8.25037e-07
0.181077
1.00047e-06
0.20418
1.18128e-06
0.226407
1.36586e-06
0.247513
1.55396e-06
0.26721
1.74733e-06
0.285111
1.95191e-06
0.300698
2.17808e-06
0.313372
2.43585e-06
0.322652
2.72439e-06
0.328485
3.03268e-06
0.331443
3.30454e-06
0.332501
3.54567e-06
0.332731
3.75975e-06
0.332642
3.85719e-06
0.332145
3.84452e-06
0.331595
3.8229e-06
0.331034
3.70562e-06
0.330547
3.6863e-06
0.330307
3.62059e-06
0.330293
3.52119e-06
0.330371
3.28583e-06
0.330331
3.05685e-06
0.329981
2.77569e-06
0.329698
2.55961e-06
0.329668
2.1397e-06
0.329763
1.73095e-06
0.329765
1.38752e-06
0.329351
9.5289e-07
0.328629
-3.84822e-08
0.32862
-2.93293e-07
0.330566
-1.13481e-06
0.335371
-1.98828e-06
0.348679
-3.38773e-06
0.378407
-4.46375e-06
0.434344
-5.42546e-06
0.522962
-6.16957e-06
0.630853
-7.12363e-06
0.721761
-7.43425e-06
0.765582
-7.78587e-06
0.770936
-6.33393e-06
0.769635
-6.02508e-06
0.768153
-5.63367e-06
0.766196
-5.36778e-06
0.765064
-4.97278e-06
0.764464
-4.64793e-06
0.762694
-4.51913e-06
0.755563
-4.35935e-06
0.732729
-4.16249e-06
0.664224
-3.78845e-06
0.488743
-2.99772e-06
0.199203
-1.63364e-06
0.0228935
-4.04342e-07
0.000412517
-2.83808e-08
7.80083e-07
-3.5097e-10
1.15263e-10
-4.80227e-13
9.4369e-15
-3.88578e-16
-2.22045e-16
-1.11022e-16
-1.11022e-16
5.55112e-17
-2.77556e-16
-5.55112e-17
0
1.11022e-16
2.22045e-16
-5.55112e-17
1.66533e-16
-2.77556e-16
2.22045e-16
-4.44089e-16
-1.11022e-16
-6.10623e-16
-1.11022e-16
-4.44089e-16
2.22045e-16
-5.55112e-16
-1.11022e-16
-9.4369e-16
-2.77556e-16
-8.32667e-16
1.11022e-16
-2.77556e-16
5.55112e-17
-4.996e-16
2.77556e-16
-2.77556e-16
1.11022e-16
-3.33067e-16
-3.33067e-16
-6.66134e-16
5.55112e-17
-3.33067e-16
-3.88578e-16
-7.21645e-16
-1.66533e-16
-5.55112e-17
5.55112e-17
0
5.55112e-17
0
1.11022e-16
2.77556e-16
-1.11022e-16
5.55112e-17
-4.996e-16
1.66533e-16
-2.22045e-16
1.66533e-16
-2.77556e-16
5.55112e-17
5.55112e-17
0
2.77556e-16
-1.11022e-16
5.55112e-17
-2.22045e-16
2.22045e-16
-3.33067e-16
-5.55112e-17
-3.88578e-16
-5.55112e-17
-5.55112e-16
-5.55112e-17
-4.44089e-16
4.44089e-16
-5.55112e-16
-6.66134e-16
4.44089e-16
-2.22045e-16
6.66134e-16
-1.11022e-16
2.22045e-16
-5.55112e-16
0
-2.22045e-16
0
0
-4.44089e-16
-1.11022e-16
1.11022e-16
-1.11022e-16
-1.11022e-16
-4.44089e-16
-1.11022e-16
-4.44089e-16
1.11022e-16
-4.44089e-16
2.22045e-16
-4.44089e-16
2.22045e-16
-2.22045e-16
2.22045e-16
0
1.11022e-16
-1.11022e-16
1.11022e-16
1.11022e-16
2.22045e-16
-2.22045e-16
1.11022e-16
1.11022e-16
4.44089e-16
1.11022e-16
-4.44089e-16
-1.11022e-16
-8.88178e-16
0
-1.11022e-16
2.22045e-16
4.44089e-16
0
2.22045e-16
-3.33067e-16
-2.22045e-16
0
-1.11022e-16
1.11022e-16
-5.55112e-16
-2.22045e-16
-5.55112e-16
1.11022e-16
0
2.22045e-16
1.11022e-16
1.11022e-16
1.11022e-16
-3.33067e-16
0
-2.22045e-16
0
0
-2.22045e-16
-2.22045e-16
0
0
0
-2.22045e-16
2.22045e-16
-1.11022e-16
-3.33067e-16
-1.11022e-16
1.11022e-16
-2.22045e-16
2.22045e-16
-2.22045e-16
2.22045e-16
1.11022e-16
5.55112e-16
3.33067e-16
3.33067e-16
0
0
-2.22045e-16
3.33067e-16
1.11022e-16
-2.22045e-16
-1.11022e-16
3.33067e-16
0
2.22045e-16
2.22045e-16
0
-3.33067e-16
0
-2.22045e-16
-1.11022e-16
-2.22045e-16
3.33067e-16
0
0
0
1.11022e-16
-1.11022e-16
0
1.11022e-16
0
-1.11022e-16
-5.55112e-16
-2.22045e-16
-3.33067e-16
2.22045e-16
-3.33067e-16
2.22045e-16
-5.55112e-16
-1.11022e-16
4.32987e-15
0
4.5511e-11
-2.22045e-16
4.86814e-08
1.39888e-14
6.72509e-06
2.56206e-12
0.000180168
1.04277e-10
0.0014799
1.27408e-09
0.00573075
6.9964e-09
0.0142424
2.33345e-08
0.0272086
5.67776e-08
0.0440826
1.11964e-07
0.0639967
1.90667e-07
0.0860323
2.91993e-07
0.109364
4.13192e-07
0.133313
5.50626e-07
0.157352
7.00597e-07
0.181077
8.59898e-07
0.20418
1.02611e-06
0.226408
1.19772e-06
0.247514
1.37439e-06
0.26721
1.55751e-06
0.285111
1.75121e-06
0.300699
1.96356e-06
0.313373
2.20339e-06
0.322652
2.47489e-06
0.328485
2.76029e-06
0.331443
3.04656e-06
0.332501
3.24805e-06
0.332731
3.50565e-06
0.332642
3.62753e-06
0.332145
3.63306e-06
0.331595
3.60393e-06
0.331034
3.52082e-06
0.330546
3.3947e-06
0.330307
3.30688e-06
0.330293
3.23505e-06
0.330371
3.00902e-06
0.33033
2.79821e-06
0.329981
2.52498e-06
0.329698
2.30112e-06
0.329667
1.87481e-06
0.329762
1.46556e-06
0.329765
1.1361e-06
0.32935
7.41038e-07
0.328629
-1.5399e-07
0.328619
-3.97476e-07
0.330565
-1.12244e-06
0.33537
-1.84673e-06
0.348678
-2.96913e-06
0.378406
-3.72835e-06
0.434344
-4.40278e-06
0.522962
-4.95236e-06
0.630853
-5.56263e-06
0.721761
-5.98235e-06
0.765583
-6.42196e-06
0.770937
-5.52819e-06
0.769636
-5.30589e-06
0.768154
-5.01562e-06
0.766197
-4.80969e-06
0.765064
-4.50976e-06
0.764464
-4.26197e-06
0.762694
-4.16213e-06
0.755563
-4.02041e-06
0.73273
-3.8192e-06
0.664225
-3.44177e-06
0.488745
-2.68362e-06
0.199205
-1.43801e-06
0.0228939
-3.49805e-07
0.000412527
-2.4178e-08
7.8011e-07
-2.95423e-10
1.15268e-10
-3.99902e-13
9.38138e-15
-4.996e-16
-5.55112e-17
-1.11022e-16
-1.11022e-16
-2.77556e-16
-1.11022e-16
-1.11022e-16
-1.11022e-16
-4.44089e-16
0
-1.11022e-16
5.55112e-17
-2.22045e-16
0
-5.55112e-16
0
-4.996e-16
-2.22045e-16
-6.10623e-16
-1.66533e-16
-7.21645e-16
5.55112e-17
-4.44089e-16
2.77556e-16
-4.996e-16
-1.11022e-16
-7.21645e-16
2.77556e-16
-2.77556e-16
2.77556e-16
-4.996e-16
1.11022e-16
-3.88578e-16
5.55112e-17
-4.44089e-16
-1.66533e-16
-3.33067e-16
5.55112e-17
1.11022e-16
0
-1.66533e-16
5.55112e-17
-1.66533e-16
3.88578e-16
1.66533e-16
1.11022e-16
0
-5.55112e-17
-1.11022e-16
-3.88578e-16
-2.22045e-16
-3.88578e-16
-1.11022e-16
-2.22045e-16
5.55112e-17
5.55112e-17
1.66533e-16
0
-4.44089e-16
1.66533e-16
-3.33067e-16
1.66533e-16
-3.33067e-16
-5.55112e-17
-3.88578e-16
1.66533e-16
-4.44089e-16
-2.22045e-16
-7.77156e-16
1.11022e-16
-4.996e-16
-4.996e-16
5.55112e-16
-2.22045e-16
5.55112e-16
-2.22045e-16
3.33067e-16
-1.11022e-16
0
-2.22045e-16
0
-2.22045e-16
-2.22045e-16
0
-2.22045e-16
-2.22045e-16
-1.11022e-16
-1.11022e-16
0
-1.11022e-16
0
0
2.22045e-16
-3.33067e-16
1.11022e-16
-1.11022e-16
2.22045e-16
-3.33067e-16
2.22045e-16
-3.33067e-16
0
-2.22045e-16
3.33067e-16
0
0
1.11022e-16
1.11022e-16
4.44089e-16
-1.11022e-16
0
-5.55112e-16
2.22045e-16
-2.22045e-16
3.33067e-16
-1.11022e-16
-2.22045e-16
5.55112e-16
-1.11022e-16
-3.33067e-16
-1.11022e-16
-2.22045e-16
1.11022e-16
-2.22045e-16
2.22045e-16
-3.33067e-16
2.22045e-16
-3.33067e-16
7.77156e-16
-2.22045e-16
0
-1.11022e-16
-2.22045e-16
2.22045e-16
-3.33067e-16
-1.11022e-16
-2.22045e-16
0
-2.22045e-16
-2.22045e-16
0
-1.11022e-16
-3.33067e-16
2.22045e-16
0
0
0
1.11022e-16
0
2.22045e-16
0
2.22045e-16
3.33067e-16
1.11022e-16
1.11022e-16
-1.11022e-16
4.44089e-16
2.22045e-16
3.33067e-16
0
-2.22045e-16
-1.11022e-16
-2.22045e-16
3.33067e-16
2.22045e-16
-3.33067e-16
-1.11022e-16
0
5.55112e-16
0
2.22045e-16
0
3.33067e-16
5.55112e-16
2.22045e-16
-1.11022e-16
-1.11022e-16
1.11022e-16
1.11022e-16
-2.22045e-16
-1.11022e-16
0
1.11022e-16
-2.22045e-16
1.11022e-16
-3.33067e-16
2.22045e-16
-5.55112e-16
-1.11022e-16
-4.44089e-16
-4.44089e-16
4.55191e-15
4.44089e-16
4.55105e-11
-5.55112e-16
4.86817e-08
5.77316e-15
6.72512e-06
1.29963e-12
0.000180169
5.75016e-11
0.00147991
7.66823e-10
0.00573077
4.53822e-09
0.0142424
1.60606e-08
0.0272087
4.09109e-08
0.0440827
8.36405e-08
0.0639968
1.4669e-07
0.0860324
2.30279e-07
0.109364
3.32846e-07
0.133313
4.51746e-07
0.157352
5.83948e-07
0.181077
7.26621e-07
0.204181
8.77533e-07
0.226408
1.0353e-06
0.247514
1.19959e-06
0.267211
1.37153e-06
0.285112
1.55423e-06
0.300699
1.75368e-06
0.313373
1.97648e-06
0.322652
2.23028e-06
0.328485
2.49123e-06
0.331444
2.7883e-06
0.332502
2.95616e-06
0.332731
3.2452e-06
0.332642
3.41131e-06
0.332145
3.42423e-06
0.331595
3.38208e-06
0.331034
3.34455e-06
0.330546
3.163e-06
0.330306
3.05019e-06
0.330293
2.95696e-06
0.330371
2.74447e-06
0.33033
2.55645e-06
0.329981
2.30933e-06
0.329697
2.09147e-06
0.329667
1.6648e-06
0.329762
1.26348e-06
0.329764
9.53767e-07
0.32935
6.00456e-07
0.328628
-1.94989e-07
0.328619
-4.3008e-07
0.330565
-1.0328e-06
0.335369
-1.62986e-06
0.348677
-2.52767e-06
0.378406
-3.0982e-06
0.434344
-3.59768e-06
0.522962
-4.01043e-06
0.630853
-4.41286e-06
0.721761
-4.86793e-06
0.765584
-5.26074e-06
0.770938
-4.74449e-06
0.769637
-4.60081e-06
0.768155
-4.41355e-06
0.766197
-4.27517e-06
0.765065
-4.0564e-06
0.764465
-3.86363e-06
0.762695
-3.77786e-06
0.755563
-3.63334e-06
0.73273
-3.41925e-06
0.664226
-3.04293e-06
0.488746
-2.33461e-06
0.199206
-1.22697e-06
0.0228942
-2.92283e-07
0.000412536
-1.98054e-08
7.80133e-07
-2.37969e-10
1.15273e-10
-3.17801e-13
9.54792e-15
-2.22045e-16
-1.11022e-16
-1.66533e-16
-1.11022e-16
-2.77556e-16
-2.77556e-16
-3.88578e-16
2.22045e-16
-1.11022e-16
-2.22045e-16
-3.33067e-16
-1.66533e-16
-1.66533e-16
0
0
-1.66533e-16
-2.22045e-16
-2.22045e-16
-1.11022e-16
1.66533e-16
5.55112e-17
-1.66533e-16
-3.88578e-16
5.55112e-17
-5.55112e-16
3.33067e-16
-1.11022e-16
0
-5.55112e-16
1.11022e-16
-4.44089e-16
1.11022e-16
-2.22045e-16
-5.55112e-17
-5.55112e-17
1.11022e-16
0
-1.66533e-16
-1.66533e-16
-5.55112e-17
-1.66533e-16
1.66533e-16
1.66533e-16
1.66533e-16
2.77556e-16
-1.66533e-16
-5.55112e-17
0
0
-1.66533e-16
0
-3.33067e-16
-1.66533e-16
-2.77556e-16
-2.77556e-16
-3.33067e-16
-3.33067e-16
-5.55112e-17
-1.11022e-16
1.11022e-16
-1.66533e-16
5.55112e-17
-4.44089e-16
-1.66533e-16
-4.44089e-16
-2.22045e-16
-5.55112e-16
0
-2.22045e-16
5.55112e-17
-2.77556e-16
-1.66533e-16
3.33067e-16
-2.22045e-16
5.55112e-16
-2.22045e-16
1.11022e-16
-7.77156e-16
3.33067e-16
-3.33067e-16
-2.22045e-16
-1.11022e-16
-2.22045e-16
-1.11022e-16
-3.33067e-16
-3.33067e-16
-3.33067e-16
-2.22045e-16
-1.11022e-16
1.11022e-16
-1.11022e-16
1.11022e-16
5.55112e-16
2.22045e-16
1.11022e-16
-2.22045e-16
2.22045e-16
0
2.22045e-16
3.33067e-16
2.22045e-16
0
2.22045e-16
0
-1.11022e-16
0
-3.33067e-16
1.11022e-16
2.22045e-16
3.33067e-16
-5.55112e-16
0
-3.33067e-16
1.11022e-16
-2.22045e-16
2.22045e-16
2.22045e-16
1.11022e-16
-1.11022e-16
-2.22045e-16
1.11022e-16
-2.22045e-16
-3.33067e-16
-3.33067e-16
-1.11022e-16
-1.11022e-16
-8.88178e-16
1.11022e-16
-2.22045e-16
1.11022e-16
0
0
-2.22045e-16
0