/*--------------------------------*- C++ -*----------------------------------*\
  =========                 |
  \\      /  F ield         | OpenFOAM: The Open Source CFD Toolbox
   \\    /   O peration     | Website:  https://openfoam.org
    \\  /    A nd           | Version:  13
     \\/     M anipulation  |
\*---------------------------------------------------------------------------*/
FoamFile
{
    format      ascii;
    class       volScalarField;
    location    "0.0005";
    object      Qdot;
}
// * * * * * * * * * * * * * * * * * * * * * * * * * * * * * * * * * * * * * //

dimensions      [1 -1 -3 0 0 0 0];

internalField   nonuniform List<scalar> 
33334
(
1.25529e+08
1.25529e+08
1.25529e+08
1.25529e+08
1.25529e+08
1.25529e+08
1.25529e+08
1.25529e+08
1.25529e+08
1.25529e+08
1.25529e+08
1.25529e+08
1.25529e+08
1.25529e+08
1.25529e+08
1.25529e+08
1.25529e+08
1.25529e+08
1.25529e+08
1.25529e+08
1.25529e+08
1.25529e+08
1.25529e+08
1.25529e+08
1.25529e+08
1.25529e+08
1.25529e+08
1.25529e+08
1.25529e+08
1.25529e+08
1.25529e+08
1.25529e+08
1.25529e+08
1.25529e+08
1.25529e+08
1.25529e+08
1.25529e+08
1.25529e+08
1.25529e+08
1.25529e+08
1.25529e+08
1.25529e+08
1.25529e+08
1.25529e+08
1.25529e+08
1.25529e+08
1.25529e+08
1.25529e+08
1.25529e+08
1.25529e+08
1.25529e+08
1.25529e+08
1.25529e+08
1.25529e+08
1.25529e+08
1.25529e+08
1.25529e+08
1.25529e+08
1.25529e+08
1.25529e+08
1.25529e+08
1.25529e+08
1.25528e+08
1.25502e+08
1.25186e+08
1.23713e+08
1.20008e+08
1.13632e+08
1.049e+08
9.45594e+07
8.34663e+07
7.23692e+07
6.18182e+07
5.21579e+07
4.35628e+07
3.60844e+07
2.9696e+07
2.43272e+07
1.98896e+07
1.62931e+07
1.3455e+07
1.12996e+07
9.75066e+06
8.7199e+06
8.09757e+06
7.75572e+06
7.56277e+06
7.43754e+06
7.36271e+06
7.30725e+06
7.25349e+06
7.20305e+06
7.14275e+06
7.06099e+06
6.96792e+06
6.8698e+06
6.78384e+06
6.7136e+06
6.64146e+06
6.5688e+06
6.50222e+06
6.46674e+06
6.44684e+06
6.39394e+06
6.05185e+06
5.07899e+06
3.30087e+06
1.21528e+06
174471
6389.38
60.531
0.49186
0.0221753
0.00722853
0.00618263
0.00619814
0.00663553
0.00728427
0.00785156
0.00803125
0.00775495
0.00658411
0.00407357
0.00101447
4.49059e-05
6.16285e-07
1.23851e-07
1.1134e-07
1.11225e-07
1.11225e-07
1.11225e-07
1.11225e-07
1.11225e-07
1.11225e-07
1.11225e-07
1.11225e-07
1.11225e-07
1.11225e-07
1.11225e-07
1.11225e-07
1.11225e-07
1.11225e-07
1.11225e-07
1.11225e-07
1.11225e-07
1.11225e-07
1.11225e-07
1.11225e-07
1.11225e-07
1.11225e-07
1.11225e-07
1.11225e-07
1.11225e-07
1.11225e-07
1.11225e-07
1.11225e-07
1.11225e-07
1.11225e-07
1.11225e-07
1.11225e-07
1.11225e-07
1.11225e-07
1.11225e-07
1.11225e-07
1.11225e-07
1.11225e-07
1.25529e+08
1.25529e+08
1.25529e+08
1.25529e+08
1.25529e+08
1.25529e+08
1.25529e+08
1.25529e+08
1.25529e+08
1.25529e+08
1.25529e+08
1.25529e+08
1.25529e+08
1.25529e+08
1.25529e+08
1.25529e+08
1.25529e+08
1.25529e+08
1.25529e+08
1.25529e+08
1.25529e+08
1.25529e+08
1.25529e+08
1.25529e+08
1.25529e+08
1.25529e+08
1.25529e+08
1.25529e+08
1.25529e+08
1.25529e+08
1.25529e+08
1.25529e+08
1.25529e+08
1.25529e+08
1.25529e+08
1.25529e+08
1.25529e+08
1.25529e+08
1.25529e+08
1.25529e+08
1.25529e+08
1.25529e+08
1.25529e+08
1.25529e+08
1.25529e+08
1.25529e+08
1.25529e+08
1.25529e+08
1.25529e+08
1.25529e+08
1.25529e+08
1.25529e+08
1.25529e+08
1.25529e+08
1.25529e+08
1.25529e+08
1.25529e+08
1.25529e+08
1.25529e+08
1.25529e+08
1.25529e+08
1.25529e+08
1.25528e+08
1.25502e+08
1.25186e+08
1.23713e+08
1.20008e+08
1.13632e+08
1.049e+08
9.45593e+07
8.34662e+07
7.23691e+07
6.18181e+07
5.21579e+07
4.35627e+07
3.60843e+07
2.96959e+07
2.43271e+07
1.98895e+07
1.6293e+07
1.34549e+07
1.12995e+07
9.75056e+06
8.71979e+06
8.09744e+06
7.7556e+06
7.56259e+06
7.4375e+06
7.36257e+06
7.30711e+06
7.25335e+06
7.2029e+06
7.1426e+06
7.06088e+06
6.96771e+06
6.86973e+06
6.78371e+06
6.71346e+06
6.64129e+06
6.56868e+06
6.5021e+06
6.46659e+06
6.44663e+06
6.39383e+06
6.05186e+06
5.07929e+06
3.3014e+06
1.21568e+06
174565
6393.97
60.5745
0.492103
0.0221788
0.00722828
0.00618226
0.00619783
0.00663517
0.00728385
0.00785119
0.00803095
0.00775471
0.00658396
0.00407353
0.00101447
4.49073e-05
6.163e-07
1.23851e-07
1.1134e-07
1.11225e-07
1.11225e-07
1.11225e-07
1.11225e-07
1.11225e-07
1.11225e-07
1.11225e-07
1.11225e-07
1.11225e-07
1.11225e-07
1.11225e-07
1.11225e-07
1.11225e-07
1.11225e-07
1.11225e-07
1.11225e-07
1.11225e-07
1.11225e-07
1.11225e-07
1.11225e-07
1.11225e-07
1.11225e-07
1.11225e-07
1.11225e-07
1.11225e-07
1.11225e-07
1.11225e-07
1.11225e-07
1.11225e-07
1.11225e-07
1.11225e-07
1.11225e-07
1.11225e-07
1.11225e-07
1.11225e-07
1.11225e-07
1.11225e-07
1.11225e-07
1.25529e+08
1.25529e+08
1.25529e+08
1.25529e+08
1.25529e+08
1.25529e+08
1.25529e+08
1.25529e+08
1.25529e+08
1.25529e+08
1.25529e+08
1.25529e+08
1.25529e+08
1.25529e+08
1.25529e+08
1.25529e+08
1.25529e+08
1.25529e+08
1.25529e+08
1.25529e+08
1.25529e+08
1.25529e+08
1.25529e+08
1.25529e+08
1.25529e+08
1.25529e+08
1.25529e+08
1.25529e+08
1.25529e+08
1.25529e+08
1.25529e+08
1.25529e+08
1.25529e+08
1.25529e+08
1.25529e+08
1.25529e+08
1.25529e+08
1.25529e+08
1.25529e+08
1.25529e+08
1.25529e+08
1.25529e+08
1.25529e+08
1.25529e+08
1.25529e+08
1.25529e+08
1.25529e+08
1.25529e+08
1.25529e+08
1.25529e+08
1.25529e+08
1.25529e+08
1.25529e+08
1.25529e+08
1.25529e+08
1.25529e+08
1.25529e+08
1.25529e+08
1.25529e+08
1.25529e+08
1.25529e+08
1.25529e+08
1.25528e+08
1.25502e+08
1.25186e+08
1.23712e+08
1.20008e+08
1.13632e+08
1.04899e+08
9.45592e+07
8.34661e+07
7.2369e+07
6.1818e+07
5.21577e+07
4.35626e+07
3.60842e+07
2.96958e+07
2.4327e+07
1.98894e+07
1.62929e+07
1.34548e+07
1.12994e+07
9.75046e+06
8.71968e+06
8.09733e+06
7.75549e+06
7.56248e+06
7.43742e+06
7.36245e+06
7.30697e+06
7.25322e+06
7.20277e+06
7.14246e+06
7.06073e+06
6.96753e+06
6.86958e+06
6.78357e+06
6.71328e+06
6.64112e+06
6.56851e+06
6.50192e+06
6.46638e+06
6.44645e+06
6.39366e+06
6.05182e+06
5.07946e+06
3.30182e+06
1.21603e+06
174657
6398.94
60.6266
0.492409
0.0221835
0.00722822
0.00618193
0.00619752
0.00663481
0.00728347
0.00785085
0.00803067
0.0077545
0.00658385
0.00407351
0.00101449
4.49086e-05
6.16313e-07
1.23851e-07
1.1134e-07
1.11225e-07
1.11225e-07
1.11225e-07
1.11225e-07
1.11225e-07
1.11225e-07
1.11225e-07
1.11225e-07
1.11225e-07
1.11225e-07
1.11225e-07
1.11225e-07
1.11225e-07
1.11225e-07
1.11225e-07
1.11225e-07
1.11225e-07
1.11225e-07
1.11225e-07
1.11225e-07
1.11225e-07
1.11225e-07
1.11225e-07
1.11225e-07
1.11225e-07
1.11225e-07
1.11225e-07
1.11225e-07
1.11225e-07
1.11225e-07
1.11225e-07
1.11225e-07
1.11225e-07
1.11225e-07
1.11225e-07
1.11225e-07
1.11225e-07
1.11225e-07
1.25529e+08
1.25529e+08
1.25529e+08
1.25529e+08
1.25529e+08
1.25529e+08
1.25529e+08
1.25529e+08
1.25529e+08
1.25529e+08
1.25529e+08
1.25529e+08
1.25529e+08
1.25529e+08
1.25529e+08
1.25529e+08
1.25529e+08
1.25529e+08
1.25529e+08
1.25529e+08
1.25529e+08
1.25529e+08
1.25529e+08
1.25529e+08
1.25529e+08
1.25529e+08
1.25529e+08
1.25529e+08
1.25529e+08
1.25529e+08
1.25529e+08
1.25529e+08
1.25529e+08
1.25529e+08
1.25529e+08
1.25529e+08
1.25529e+08
1.25529e+08
1.25529e+08
1.25529e+08
1.25529e+08
1.25529e+08
1.25529e+08
1.25529e+08
1.25529e+08
1.25529e+08
1.25529e+08
1.25529e+08
1.25529e+08
1.25529e+08
1.25529e+08
1.25529e+08
1.25529e+08
1.25529e+08
1.25529e+08
1.25529e+08
1.25529e+08
1.25529e+08
1.25529e+08
1.25529e+08
1.25529e+08
1.25529e+08
1.25528e+08
1.25502e+08
1.25186e+08
1.23712e+08
1.20008e+08
1.13632e+08
1.04899e+08
9.45591e+07
8.3466e+07
7.23689e+07
6.18179e+07
5.21577e+07
4.35625e+07
3.60841e+07
2.96958e+07
2.4327e+07
1.98893e+07
1.62929e+07
1.34548e+07
1.12993e+07
9.75041e+06
8.71963e+06
8.09727e+06
7.75544e+06
7.56242e+06
7.43739e+06
7.36242e+06
7.30691e+06
7.25315e+06
7.20271e+06
7.1424e+06
7.06065e+06
6.96745e+06
6.8695e+06
6.78349e+06
6.71319e+06
6.64102e+06
6.5684e+06
6.50182e+06
6.46627e+06
6.44633e+06
6.39357e+06
6.05177e+06
5.07953e+06
3.302e+06
1.2162e+06
174701
6401.36
60.6524
0.492553
0.0221861
0.00722827
0.00618183
0.00619741
0.00663469
0.00728334
0.00785076
0.00803062
0.00775446
0.00658385
0.00407353
0.0010145
4.49098e-05
6.16326e-07
1.23852e-07
1.1134e-07
1.11225e-07
1.11225e-07
1.11225e-07
1.11225e-07
1.11225e-07
1.11225e-07
1.11225e-07
1.11225e-07
1.11225e-07
1.11225e-07
1.11225e-07
1.11225e-07
1.11225e-07
1.11225e-07
1.11225e-07
1.11225e-07
1.11225e-07
1.11225e-07
1.11225e-07
1.11225e-07
1.11225e-07
1.11225e-07
1.11225e-07
1.11225e-07
1.11225e-07
1.11225e-07
1.11225e-07
1.11225e-07
1.11225e-07
1.11225e-07
1.11225e-07
1.11225e-07
1.11225e-07
1.11225e-07
1.11225e-07
1.11225e-07
1.11225e-07
1.11225e-07
1.25529e+08
1.25529e+08
1.25529e+08
1.25529e+08
1.25529e+08
1.25529e+08
1.25529e+08
1.25529e+08
1.25529e+08
1.25529e+08
1.25529e+08
1.25529e+08
1.25529e+08
1.25529e+08
1.25529e+08
1.25529e+08
1.25529e+08
1.25529e+08
1.25529e+08
1.25529e+08
1.25529e+08
1.25529e+08
1.25529e+08
1.25529e+08
1.25529e+08
1.25529e+08
1.25529e+08
1.25529e+08
1.25529e+08
1.25529e+08
1.25529e+08
1.25529e+08
1.25529e+08
1.25529e+08
1.25529e+08
1.25529e+08
1.25529e+08
1.25529e+08
1.25529e+08
1.25529e+08
1.25529e+08
1.25529e+08
1.25529e+08
1.25529e+08
1.25529e+08
1.25529e+08
1.25529e+08
1.25529e+08
1.25529e+08
1.25529e+08
1.25529e+08
1.25529e+08
1.25529e+08
1.25529e+08
1.25529e+08
1.25529e+08
1.25529e+08
1.25529e+08
1.25529e+08
1.25529e+08
1.25529e+08
1.25529e+08
1.25528e+08
1.25502e+08
1.25186e+08
1.23712e+08
1.20008e+08
1.13632e+08
1.04899e+08
9.4559e+07
8.34659e+07
7.23688e+07
6.18178e+07
5.21576e+07
4.35624e+07
3.60841e+07
2.96957e+07
2.43269e+07
1.98893e+07
1.62928e+07
1.34548e+07
1.12993e+07
9.75037e+06
8.7196e+06
8.09725e+06
7.75541e+06
7.5624e+06
7.43737e+06
7.36242e+06
7.3069e+06
7.25313e+06
7.20269e+06
7.14238e+06
7.06064e+06
6.96744e+06
6.86948e+06
6.78346e+06
6.71316e+06
6.64098e+06
6.56837e+06
6.50179e+06
6.46624e+06
6.4463e+06
6.39353e+06
6.05174e+06
5.07954e+06
3.30204e+06
1.21623e+06
174711
6401.9
60.6588
0.492576
0.0221868
0.00722832
0.00618184
0.00619741
0.00663468
0.00728333
0.00785077
0.00803062
0.00775448
0.00658387
0.00407356
0.00101452
4.4911e-05
6.16339e-07
1.23852e-07
1.1134e-07
1.11225e-07
1.11225e-07
1.11225e-07
1.11225e-07
1.11225e-07
1.11225e-07
1.11225e-07
1.11225e-07
1.11225e-07
1.11225e-07
1.11225e-07
1.11225e-07
1.11225e-07
1.11225e-07
1.11225e-07
1.11225e-07
1.11225e-07
1.11225e-07
1.11225e-07
1.11225e-07
1.11225e-07
1.11225e-07
1.11225e-07
1.11225e-07
1.11225e-07
1.11225e-07
1.11225e-07
1.11225e-07
1.11225e-07
1.11225e-07
1.11225e-07
1.11225e-07
1.11225e-07
1.11225e-07
1.11225e-07
1.11225e-07
1.11225e-07
1.11225e-07
1.25529e+08
1.25529e+08
1.25529e+08
1.25529e+08
1.25529e+08
1.25529e+08
1.25529e+08
1.25529e+08
1.25529e+08
1.25529e+08
1.25529e+08
1.25529e+08
1.25529e+08
1.25529e+08
1.25529e+08
1.25529e+08
1.25529e+08
1.25529e+08
1.25529e+08
1.25529e+08
1.25529e+08
1.25529e+08
1.25529e+08
1.25529e+08
1.25529e+08
1.25529e+08
1.25529e+08
1.25529e+08
1.25529e+08
1.25529e+08
1.25529e+08
1.25529e+08
1.25529e+08
1.25529e+08
1.25529e+08
1.25529e+08
1.25529e+08
1.25529e+08
1.25529e+08
1.25529e+08
1.25529e+08
1.25529e+08
1.25529e+08
1.25529e+08
1.25529e+08
1.25529e+08
1.25529e+08
1.25529e+08
1.25529e+08
1.25529e+08
1.25529e+08
1.25529e+08
1.25529e+08
1.25529e+08
1.25529e+08
1.25529e+08
1.25529e+08
1.25529e+08
1.25529e+08
1.25529e+08
1.25529e+08
1.25529e+08
1.25528e+08
1.25502e+08
1.25186e+08
1.23712e+08
1.20008e+08
1.13632e+08
1.04899e+08
9.4559e+07
8.34658e+07
7.23687e+07
6.18178e+07
5.21575e+07
4.35623e+07
3.6084e+07
2.96957e+07
2.43269e+07
1.98892e+07
1.62928e+07
1.34547e+07
1.12992e+07
9.75034e+06
8.71957e+06
8.09723e+06
7.7554e+06
7.56239e+06
7.43736e+06
7.36243e+06
7.3069e+06
7.25312e+06
7.20268e+06
7.14238e+06
7.06064e+06
6.96744e+06
6.86948e+06
6.78346e+06
6.71315e+06
6.64098e+06
6.56836e+06
6.50179e+06
6.46623e+06
6.4463e+06
6.39353e+06
6.05173e+06
5.07953e+06
3.30203e+06
1.21623e+06
174710
6401.89
60.6592
0.492582
0.0221871
0.00722837
0.00618187
0.00619744
0.0066347
0.00728335
0.00785079
0.00803065
0.0077545
0.0065839
0.00407359
0.00101454
4.49122e-05
6.1635e-07
1.23852e-07
1.1134e-07
1.11225e-07
1.11225e-07
1.11225e-07
1.11225e-07
1.11225e-07
1.11225e-07
1.11225e-07
1.11225e-07
1.11225e-07
1.11225e-07
1.11225e-07
1.11225e-07
1.11225e-07
1.11225e-07
1.11225e-07
1.11225e-07
1.11225e-07
1.11225e-07
1.11225e-07
1.11225e-07
1.11225e-07
1.11225e-07
1.11225e-07
1.11225e-07
1.11225e-07
1.11225e-07
1.11225e-07
1.11225e-07
1.11225e-07
1.11225e-07
1.11225e-07
1.11225e-07
1.11225e-07
1.11225e-07
1.11225e-07
1.11225e-07
1.11225e-07
1.11225e-07
1.25529e+08
1.25529e+08
1.25529e+08
1.25529e+08
1.25529e+08
1.25529e+08
1.25529e+08
1.25529e+08
1.25529e+08
1.25529e+08
1.25529e+08
1.25529e+08
1.25529e+08
1.25529e+08
1.25529e+08
1.25529e+08
1.25529e+08
1.25529e+08
1.25529e+08
1.25529e+08
1.25529e+08
1.25529e+08
1.25529e+08
1.25529e+08
1.25529e+08
1.25529e+08
1.25529e+08
1.25529e+08
1.25529e+08
1.25529e+08
1.25529e+08
1.25529e+08
1.25529e+08
1.25529e+08
1.25529e+08
1.25529e+08
1.25529e+08
1.25529e+08
1.25529e+08
1.25529e+08
1.25529e+08
1.25529e+08
1.25529e+08
1.25529e+08
1.25529e+08
1.25529e+08
1.25529e+08
1.25529e+08
1.25529e+08
1.25529e+08
1.25529e+08
1.25529e+08
1.25529e+08
1.25529e+08
1.25529e+08
1.25529e+08
1.25529e+08
1.25529e+08
1.25529e+08
1.25529e+08
1.25529e+08
1.25529e+08
1.25528e+08
1.25502e+08
1.25186e+08
1.23712e+08
1.20008e+08
1.13632e+08
1.04899e+08
9.45589e+07
8.34658e+07
7.23687e+07
6.18177e+07
5.21574e+07
4.35623e+07
3.6084e+07
2.96956e+07
2.43268e+07
1.98892e+07
1.62928e+07
1.34547e+07
1.12992e+07
9.75031e+06
8.71955e+06
8.09721e+06
7.75538e+06
7.56238e+06
7.43735e+06
7.36243e+06
7.30691e+06
7.25312e+06
7.20268e+06
7.14238e+06
7.06064e+06
6.96745e+06
6.86948e+06
6.78346e+06
6.71316e+06
6.64098e+06
6.56836e+06
6.50179e+06
6.46624e+06
6.4463e+06
6.39353e+06
6.05173e+06
5.07952e+06
3.30201e+06
1.21621e+06
174706
6401.75
60.6582
0.492579
0.0221871
0.00722842
0.00618191
0.00619748
0.00663474
0.00728339
0.00785082
0.00803068
0.00775453
0.00658393
0.00407362
0.00101455
4.49132e-05
6.1636e-07
1.23853e-07
1.1134e-07
1.11225e-07
1.11225e-07
1.11225e-07
1.11225e-07
1.11225e-07
1.11225e-07
1.11225e-07
1.11225e-07
1.11225e-07
1.11225e-07
1.11225e-07
1.11225e-07
1.11225e-07
1.11225e-07
1.11225e-07
1.11225e-07
1.11225e-07
1.11225e-07
1.11225e-07
1.11225e-07
1.11225e-07
1.11225e-07
1.11225e-07
1.11225e-07
1.11225e-07
1.11225e-07
1.11225e-07
1.11225e-07
1.11225e-07
1.11225e-07
1.11225e-07
1.11225e-07
1.11225e-07
1.11225e-07
1.11225e-07
1.11225e-07
1.11225e-07
1.11225e-07
1.25529e+08
1.25529e+08
1.25529e+08
1.25529e+08
1.25529e+08
1.25529e+08
1.25529e+08
1.25529e+08
1.25529e+08
1.25529e+08
1.25529e+08
1.25529e+08
1.25529e+08
1.25529e+08
1.25529e+08
1.25529e+08
1.25529e+08
1.25529e+08
1.25529e+08
1.25529e+08
1.25529e+08
1.25529e+08
1.25529e+08
1.25529e+08
1.25529e+08
1.25529e+08
1.25529e+08
1.25529e+08
1.25529e+08
1.25529e+08
1.25529e+08
1.25529e+08
1.25529e+08
1.25529e+08
1.25529e+08
1.25529e+08
1.25529e+08
1.25529e+08
1.25529e+08
1.25529e+08
1.25529e+08
1.25529e+08
1.25529e+08
1.25529e+08
1.25529e+08
1.25529e+08
1.25529e+08
1.25529e+08
1.25529e+08
1.25529e+08
1.25529e+08
1.25529e+08
1.25529e+08
1.25529e+08
1.25529e+08
1.25529e+08
1.25529e+08
1.25529e+08
1.25529e+08
1.25529e+08
1.25529e+08
1.25529e+08
1.25528e+08
1.25502e+08
1.25186e+08
1.23712e+08
1.20008e+08
1.13632e+08
1.04899e+08
9.45588e+07
8.34657e+07
7.23686e+07
6.18176e+07
5.21574e+07
4.35622e+07
3.60839e+07
2.96956e+07
2.43268e+07
1.98891e+07
1.62927e+07
1.34547e+07
1.12992e+07
9.75028e+06
8.71952e+06
8.09719e+06
7.75536e+06
7.56237e+06
7.43734e+06
7.36243e+06
7.30691e+06
7.25313e+06
7.20268e+06
7.14238e+06
7.06064e+06
6.96745e+06
6.86949e+06
6.78347e+06
6.71316e+06
6.64099e+06
6.56836e+06
6.50179e+06
6.46625e+06
6.44631e+06
6.39353e+06
6.05174e+06
5.07951e+06
3.30199e+06
1.21619e+06
174702
6401.54
60.6566
0.492572
0.0221872
0.00722847
0.00618195
0.00619752
0.00663477
0.00728342
0.00785085
0.00803071
0.00775456
0.00658396
0.00407365
0.00101457
4.49142e-05
6.1637e-07
1.23853e-07
1.1134e-07
1.11225e-07
1.11225e-07
1.11225e-07
1.11225e-07
1.11225e-07
1.11225e-07
1.11225e-07
1.11225e-07
1.11225e-07
1.11225e-07
1.11225e-07
1.11225e-07
1.11225e-07
1.11225e-07
1.11225e-07
1.11225e-07
1.11225e-07
1.11225e-07
1.11225e-07
1.11225e-07
1.11225e-07
1.11225e-07
1.11225e-07
1.11225e-07
1.11225e-07
1.11225e-07
1.11225e-07
1.11225e-07
1.11225e-07
1.11225e-07
1.11225e-07
1.11225e-07
1.11225e-07
1.11225e-07
1.11225e-07
1.11225e-07
1.11225e-07
1.11225e-07
1.25529e+08
1.25529e+08
1.25529e+08
1.25529e+08
1.25529e+08
1.25529e+08
1.25529e+08
1.25529e+08
1.25529e+08
1.25529e+08
1.25529e+08
1.25529e+08
1.25529e+08
1.25529e+08
1.25529e+08
1.25529e+08
1.25529e+08
1.25529e+08
1.25529e+08
1.25529e+08
1.25529e+08
1.25529e+08
1.25529e+08
1.25529e+08
1.25529e+08
1.25529e+08
1.25529e+08
1.25529e+08
1.25529e+08
1.25529e+08
1.25529e+08
1.25529e+08
1.25529e+08
1.25529e+08
1.25529e+08
1.25529e+08
1.25529e+08
1.25529e+08
1.25529e+08
1.25529e+08
1.25529e+08
1.25529e+08
1.25529e+08
1.25529e+08
1.25529e+08
1.25529e+08
1.25529e+08
1.25529e+08
1.25529e+08
1.25529e+08
1.25529e+08
1.25529e+08
1.25529e+08
1.25529e+08
1.25529e+08
1.25529e+08
1.25529e+08
1.25529e+08
1.25529e+08
1.25529e+08
1.25529e+08
1.25529e+08
1.25528e+08
1.25502e+08
1.25186e+08
1.23712e+08
1.20008e+08
1.13632e+08
1.04899e+08
9.45588e+07
8.34657e+07
7.23685e+07
6.18176e+07
5.21573e+07
4.35622e+07
3.60839e+07
2.96955e+07
2.43267e+07
1.98891e+07
1.62927e+07
1.34546e+07
1.12991e+07
9.75026e+06
8.71949e+06
8.09716e+06
7.75534e+06
7.56235e+06
7.43732e+06
7.36242e+06
7.30691e+06
7.25313e+06
7.20268e+06
7.14238e+06
7.06064e+06
6.96745e+06
6.86949e+06
6.78347e+06
6.71317e+06
6.64099e+06
6.56837e+06
6.50179e+06
6.46625e+06
6.44632e+06
6.39354e+06
6.05174e+06
5.07951e+06
3.30198e+06
1.21618e+06
174699
6401.38
60.6552
0.492565
0.0221872
0.00722851
0.00618198
0.00619755
0.0066348
0.00728345
0.00785088
0.00803074
0.00775459
0.006584
0.00407368
0.00101458
4.49151e-05
6.16377e-07
1.23853e-07
1.1134e-07
1.11225e-07
1.11225e-07
1.11225e-07
1.11225e-07
1.11225e-07
1.11225e-07
1.11225e-07
1.11225e-07
1.11225e-07
1.11225e-07
1.11225e-07
1.11225e-07
1.11225e-07
1.11225e-07
1.11225e-07
1.11225e-07
1.11225e-07
1.11225e-07
1.11225e-07
1.11225e-07
1.11225e-07
1.11225e-07
1.11225e-07
1.11225e-07
1.11225e-07
1.11225e-07
1.11225e-07
1.11225e-07
1.11225e-07
1.11225e-07
1.11225e-07
1.11225e-07
1.11225e-07
1.11225e-07
1.11225e-07
1.11225e-07
1.11225e-07
1.11225e-07
1.25529e+08
1.25529e+08
1.25529e+08
1.25529e+08
1.25529e+08
1.25529e+08
1.25529e+08
1.25529e+08
1.25529e+08
1.25529e+08
1.25529e+08
1.25529e+08
1.25529e+08
1.25529e+08
1.25529e+08
1.25529e+08
1.25529e+08
1.25529e+08
1.25529e+08
1.25529e+08
1.25529e+08
1.25529e+08
1.25529e+08
1.25529e+08
1.25529e+08
1.25529e+08
1.25529e+08
1.25529e+08
1.25529e+08
1.25529e+08
1.25529e+08
1.25529e+08
1.25529e+08
1.25529e+08
1.25529e+08
1.25529e+08
1.25529e+08
1.25529e+08
1.25529e+08
1.25529e+08
1.25529e+08
1.25529e+08
1.25529e+08
1.25529e+08
1.25529e+08
1.25529e+08
1.25529e+08
1.25529e+08
1.25529e+08
1.25529e+08
1.25529e+08
1.25529e+08
1.25529e+08
1.25529e+08
1.25529e+08
1.25529e+08
1.25529e+08
1.25529e+08
1.25529e+08
1.25529e+08
1.25529e+08
1.25529e+08
1.25528e+08
1.25502e+08
1.25186e+08
1.23712e+08
1.20008e+08
1.13632e+08
1.04899e+08
9.45588e+07
8.34656e+07
7.23685e+07
6.18175e+07
5.21573e+07
4.35621e+07
3.60838e+07
2.96955e+07
2.43267e+07
1.98891e+07
1.62927e+07
1.34546e+07
1.12991e+07
9.75023e+06
8.71947e+06
8.09714e+06
7.75532e+06
7.56233e+06
7.43731e+06
7.36242e+06
7.30691e+06
7.25313e+06
7.20268e+06
7.14238e+06
7.06064e+06
6.96745e+06
6.86949e+06
6.78347e+06
6.71317e+06
6.641e+06
6.56838e+06
6.5018e+06
6.46626e+06
6.44633e+06
6.39355e+06
6.05175e+06
5.07951e+06
3.30197e+06
1.21617e+06
174697
6401.29
60.6544
0.492562
0.0221873
0.00722854
0.00618201
0.00619757
0.00663482
0.00728347
0.00785091
0.00803077
0.00775463
0.00658404
0.00407372
0.00101459
4.49158e-05
6.16384e-07
1.23853e-07
1.1134e-07
1.11225e-07
1.11225e-07
1.11225e-07
1.11225e-07
1.11225e-07
1.11225e-07
1.11225e-07
1.11225e-07
1.11225e-07
1.11225e-07
1.11225e-07
1.11225e-07
1.11225e-07
1.11225e-07
1.11225e-07
1.11225e-07
1.11225e-07
1.11225e-07
1.11225e-07
1.11225e-07
1.11225e-07
1.11225e-07
1.11225e-07
1.11225e-07
1.11225e-07
1.11225e-07
1.11225e-07
1.11225e-07
1.11225e-07
1.11225e-07
1.11225e-07
1.11225e-07
1.11225e-07
1.11225e-07
1.11225e-07
1.11225e-07
1.11225e-07
1.11225e-07
1.25529e+08
1.25529e+08
1.25529e+08
1.25529e+08
1.25529e+08
1.25529e+08
1.25529e+08
1.25529e+08
1.25529e+08
1.25529e+08
1.25529e+08
1.25529e+08
1.25529e+08
1.25529e+08
1.25529e+08
1.25529e+08
1.25529e+08
1.25529e+08
1.25529e+08
1.25529e+08
1.25529e+08
1.25529e+08
1.25529e+08
1.25529e+08
1.25529e+08
1.25529e+08
1.25529e+08
1.25529e+08
1.25529e+08
1.25529e+08
1.25529e+08
1.25529e+08
1.25529e+08
1.25529e+08
1.25529e+08
1.25529e+08
1.25529e+08
1.25529e+08
1.25529e+08
1.25529e+08
1.25529e+08
1.25529e+08
1.25529e+08
1.25529e+08
1.25529e+08
1.25529e+08
1.25529e+08
1.25529e+08
1.25529e+08
1.25529e+08
1.25529e+08
1.25529e+08
1.25529e+08
1.25529e+08
1.25529e+08
1.25529e+08
1.25529e+08
1.25529e+08
1.25529e+08
1.25529e+08
1.25529e+08
1.25529e+08
1.25528e+08
1.25502e+08
1.25186e+08
1.23712e+08
1.20008e+08
1.13632e+08
1.04899e+08
9.45587e+07
8.34656e+07
7.23684e+07
6.18175e+07
5.21572e+07
4.35621e+07
3.60838e+07
2.96954e+07
2.43267e+07
1.9889e+07
1.62926e+07
1.34546e+07
1.12991e+07
9.7502e+06
8.71944e+06
8.09712e+06
7.7553e+06
7.56231e+06
7.43729e+06
7.36241e+06
7.3069e+06
7.25313e+06
7.20268e+06
7.14238e+06
7.06064e+06
6.96745e+06
6.86949e+06
6.78347e+06
6.71318e+06
6.641e+06
6.56838e+06
6.5018e+06
6.46627e+06
6.44634e+06
6.39355e+06
6.05175e+06
5.07951e+06
3.30196e+06
1.21617e+06
174696
6401.24
60.654
0.49256
0.0221873
0.00722857
0.00618203
0.00619759
0.00663484
0.00728349
0.00785094
0.00803081
0.00775467
0.00658408
0.00407375
0.00101461
4.49164e-05
6.16388e-07
1.23853e-07
1.1134e-07
1.11225e-07
1.11225e-07
1.11225e-07
1.11225e-07
1.11225e-07
1.11225e-07
1.11225e-07
1.11225e-07
1.11225e-07
1.11225e-07
1.11225e-07
1.11225e-07
1.11225e-07
1.11225e-07
1.11225e-07
1.11225e-07
1.11225e-07
1.11225e-07
1.11225e-07
1.11225e-07
1.11225e-07
1.11225e-07
1.11225e-07
1.11225e-07
1.11225e-07
1.11225e-07
1.11225e-07
1.11225e-07
1.11225e-07
1.11225e-07
1.11225e-07
1.11225e-07
1.11225e-07
1.11225e-07
1.11225e-07
1.11225e-07
1.11225e-07
1.11225e-07
1.25529e+08
1.25529e+08
1.25529e+08
1.25529e+08
1.25529e+08
1.25529e+08
1.25529e+08
1.25529e+08
1.25529e+08
1.25529e+08
1.25529e+08
1.25529e+08
1.25529e+08
1.25529e+08
1.25529e+08
1.25529e+08
1.25529e+08
1.25529e+08
1.25529e+08
1.25529e+08
1.25529e+08
1.25529e+08
1.25529e+08
1.25529e+08
1.25529e+08
1.25529e+08
1.25529e+08
1.25529e+08
1.25529e+08
1.25529e+08
1.25529e+08
1.25529e+08
1.25529e+08
1.25529e+08
1.25529e+08
1.25529e+08
1.25529e+08
1.25529e+08
1.25529e+08
1.25529e+08
1.25529e+08
1.25529e+08
1.25529e+08
1.25529e+08
1.25529e+08
1.25529e+08
1.25529e+08
1.25529e+08
1.25529e+08
1.25529e+08
1.25529e+08
1.25529e+08
1.25529e+08
1.25529e+08
1.25529e+08
1.25529e+08
1.25529e+08
1.25529e+08
1.25529e+08
1.25529e+08
1.25529e+08
1.25529e+08
1.25528e+08
1.25502e+08
1.25186e+08
1.23712e+08
1.20008e+08
1.13632e+08
1.04899e+08
9.45587e+07
8.34656e+07
7.23684e+07
6.18174e+07
5.21572e+07
4.3562e+07
3.60837e+07
2.96954e+07
2.43266e+07
1.9889e+07
1.62926e+07
1.34545e+07
1.12991e+07
9.75018e+06
8.71942e+06
8.09709e+06
7.75528e+06
7.56229e+06
7.43727e+06
7.36239e+06
7.3069e+06
7.25313e+06
7.20268e+06
7.14238e+06
7.06064e+06
6.96745e+06
6.86949e+06
6.78348e+06
6.71318e+06
6.64101e+06
6.56839e+06
6.50181e+06
6.46627e+06
6.44634e+06
6.39356e+06
6.05176e+06
5.07951e+06
3.30196e+06
1.21617e+06
174695
6401.21
60.6537
0.49256
0.0221874
0.0072286
0.00618205
0.0061976
0.00663486
0.00728352
0.00785097
0.00803084
0.00775471
0.00658413
0.00407379
0.00101462
4.49169e-05
6.16392e-07
1.23853e-07
1.1134e-07
1.11225e-07
1.11225e-07
1.11225e-07
1.11225e-07
1.11225e-07
1.11225e-07
1.11225e-07
1.11225e-07
1.11225e-07
1.11225e-07
1.11225e-07
1.11225e-07
1.11225e-07
1.11225e-07
1.11225e-07
1.11225e-07
1.11225e-07
1.11225e-07
1.11225e-07
1.11225e-07
1.11225e-07
1.11225e-07
1.11225e-07
1.11225e-07
1.11225e-07
1.11225e-07
1.11225e-07
1.11225e-07
1.11225e-07
1.11225e-07
1.11225e-07
1.11225e-07
1.11225e-07
1.11225e-07
1.11225e-07
1.11225e-07
1.11225e-07
1.11225e-07
1.25529e+08
1.25529e+08
1.25529e+08
1.25529e+08
1.25529e+08
1.25529e+08
1.25529e+08
1.25529e+08
1.25529e+08
1.25529e+08
1.25529e+08
1.25529e+08
1.25529e+08
1.25529e+08
1.25529e+08
1.25529e+08
1.25529e+08
1.25529e+08
1.25529e+08
1.25529e+08
1.25529e+08
1.25529e+08
1.25529e+08
1.25529e+08
1.25529e+08
1.25529e+08
1.25529e+08
1.25529e+08
1.25529e+08
1.25529e+08
1.25529e+08
1.25529e+08
1.25529e+08
1.25529e+08
1.25529e+08
1.25529e+08
1.25529e+08
1.25529e+08
1.25529e+08
1.25529e+08
1.25529e+08
1.25529e+08
1.25529e+08
1.25529e+08
1.25529e+08
1.25529e+08
1.25529e+08
1.25529e+08
1.25529e+08
1.25529e+08
1.25529e+08
1.25529e+08
1.25529e+08
1.25529e+08
1.25529e+08
1.25529e+08
1.25529e+08
1.25529e+08
1.25529e+08
1.25529e+08
1.25529e+08
1.25529e+08
1.25528e+08
1.25502e+08
1.25186e+08
1.23712e+08
1.20008e+08
1.13632e+08
1.04899e+08
9.45587e+07
8.34655e+07
7.23684e+07
6.18174e+07
5.21572e+07
4.3562e+07
3.60837e+07
2.96954e+07
2.43266e+07
1.9889e+07
1.62926e+07
1.34545e+07
1.1299e+07
9.75016e+06
8.7194e+06
8.09707e+06
7.75527e+06
7.56228e+06
7.43726e+06
7.36238e+06
7.30689e+06
7.25312e+06
7.20268e+06
7.14238e+06
7.06064e+06
6.96745e+06
6.86949e+06
6.78348e+06
6.71318e+06
6.64101e+06
6.56839e+06
6.50181e+06
6.46628e+06
6.44635e+06
6.39357e+06
6.05177e+06
5.07951e+06
3.30196e+06
1.21616e+06
174695
6401.18
60.6535
0.492559
0.0221875
0.00722862
0.00618207
0.00619762
0.00663488
0.00728354
0.007851
0.00803088
0.00775476
0.00658417
0.00407382
0.00101463
4.49173e-05
6.16394e-07
1.23853e-07
1.1134e-07
1.11225e-07
1.11225e-07
1.11225e-07
1.11225e-07
1.11225e-07
1.11225e-07
1.11225e-07
1.11225e-07
1.11225e-07
1.11225e-07
1.11225e-07
1.11225e-07
1.11225e-07
1.11225e-07
1.11225e-07
1.11225e-07
1.11225e-07
1.11225e-07
1.11225e-07
1.11225e-07
1.11225e-07
1.11225e-07
1.11225e-07
1.11225e-07
1.11225e-07
1.11225e-07
1.11225e-07
1.11225e-07
1.11225e-07
1.11225e-07
1.11225e-07
1.11225e-07
1.11225e-07
1.11225e-07
1.11225e-07
1.11225e-07
1.11225e-07
1.11225e-07
1.25529e+08
1.25529e+08
1.25529e+08
1.25529e+08
1.25529e+08
1.25529e+08
1.25529e+08
1.25529e+08
1.25529e+08
1.25529e+08
1.25529e+08
1.25529e+08
1.25529e+08
1.25529e+08
1.25529e+08
1.25529e+08
1.25529e+08
1.25529e+08
1.25529e+08
1.25529e+08
1.25529e+08
1.25529e+08
1.25529e+08
1.25529e+08
1.25529e+08
1.25529e+08
1.25529e+08
1.25529e+08
1.25529e+08
1.25529e+08
1.25529e+08
1.25529e+08
1.25529e+08
1.25529e+08
1.25529e+08
1.25529e+08
1.25529e+08
1.25529e+08
1.25529e+08
1.25529e+08
1.25529e+08
1.25529e+08
1.25529e+08
1.25529e+08
1.25529e+08
1.25529e+08
1.25529e+08
1.25529e+08
1.25529e+08
1.25529e+08
1.25529e+08
1.25529e+08
1.25529e+08
1.25529e+08
1.25529e+08
1.25529e+08
1.25529e+08
1.25529e+08
1.25529e+08
1.25529e+08
1.25529e+08
1.25529e+08
1.25528e+08
1.25502e+08
1.25186e+08
1.23712e+08
1.20008e+08
1.13632e+08
1.04899e+08
9.45587e+07
8.34655e+07
7.23684e+07
6.18174e+07
5.21571e+07
4.3562e+07
3.60837e+07
2.96953e+07
2.43266e+07
1.9889e+07
1.62926e+07
1.34545e+07
1.1299e+07
9.75013e+06
8.71938e+06
8.09705e+06
7.75525e+06
7.56226e+06
7.43724e+06
7.36237e+06
7.30688e+06
7.25312e+06
7.20268e+06
7.14238e+06
7.06064e+06
6.96746e+06
6.86949e+06
6.78348e+06
6.71318e+06
6.64102e+06
6.56839e+06
6.50182e+06
6.46628e+06
6.44635e+06
6.39358e+06
6.05177e+06
5.07952e+06
3.30196e+06
1.21616e+06
174694
6401.16
60.6534
0.492559
0.0221876
0.00722865
0.00618209
0.00619764
0.0066349
0.00728358
0.00785104
0.00803093
0.0077548
0.00658421
0.00407384
0.00101463
4.49175e-05
6.16395e-07
1.23853e-07
1.1134e-07
1.11225e-07
1.11225e-07
1.11225e-07
1.11225e-07
1.11225e-07
1.11225e-07
1.11225e-07
1.11225e-07
1.11225e-07
1.11225e-07
1.11225e-07
1.11225e-07
1.11225e-07
1.11225e-07
1.11225e-07
1.11225e-07
1.11225e-07
1.11225e-07
1.11225e-07
1.11225e-07
1.11225e-07
1.11225e-07
1.11225e-07
1.11225e-07
1.11225e-07
1.11225e-07
1.11225e-07
1.11225e-07
1.11225e-07
1.11225e-07
1.11225e-07
1.11225e-07
1.11225e-07
1.11225e-07
1.11225e-07
1.11225e-07
1.11225e-07
1.11225e-07
1.25529e+08
1.25529e+08
1.25529e+08
1.25529e+08
1.25529e+08
1.25529e+08
1.25529e+08
1.25529e+08
1.25529e+08
1.25529e+08
1.25529e+08
1.25529e+08
1.25529e+08
1.25529e+08
1.25529e+08
1.25529e+08
1.25529e+08
1.25529e+08
1.25529e+08
1.25529e+08
1.25529e+08
1.25529e+08
1.25529e+08
1.25529e+08
1.25529e+08
1.25529e+08
1.25529e+08
1.25529e+08
1.25529e+08
1.25529e+08
1.25529e+08
1.25529e+08
1.25529e+08
1.25529e+08
1.25529e+08
1.25529e+08
1.25529e+08
1.25529e+08
1.25529e+08
1.25529e+08
1.25529e+08
1.25529e+08
1.25529e+08
1.25529e+08
1.25529e+08
1.25529e+08
1.25529e+08
1.25529e+08
1.25529e+08
1.25529e+08
1.25529e+08
1.25529e+08
1.25529e+08
1.25529e+08
1.25529e+08
1.25529e+08
1.25529e+08
1.25529e+08
1.25529e+08
1.25529e+08
1.25529e+08
1.25529e+08
1.25528e+08
1.25502e+08
1.25186e+08
1.23712e+08
1.20008e+08
1.13632e+08
1.04899e+08
9.45587e+07
8.34655e+07
7.23684e+07
6.18174e+07
5.21571e+07
4.3562e+07
3.60837e+07
2.96953e+07
2.43266e+07
1.98889e+07
1.62926e+07
1.34545e+07
1.1299e+07
9.75011e+06
8.71936e+06
8.09703e+06
7.75523e+06
7.56224e+06
7.43722e+06
7.36235e+06
7.30687e+06
7.25311e+06
7.20267e+06
7.14238e+06
7.06064e+06
6.96746e+06
6.86949e+06
6.78348e+06
6.71319e+06
6.64102e+06
6.5684e+06
6.50182e+06
6.46629e+06
6.44636e+06
6.39358e+06
6.05178e+06
5.07952e+06
3.30196e+06
1.21616e+06
174694
6401.15
60.6533
0.49256
0.0221876
0.00722867
0.00618211
0.00619767
0.00663493
0.00728361
0.00785108
0.00803097
0.00775484
0.00658424
0.00407386
0.00101464
4.49177e-05
6.16396e-07
1.23853e-07
1.1134e-07
1.11225e-07
1.11225e-07
1.11225e-07
1.11225e-07
1.11225e-07
1.11225e-07
1.11225e-07
1.11225e-07
1.11225e-07
1.11225e-07
1.11225e-07
1.11225e-07
1.11225e-07
1.11225e-07
1.11225e-07
1.11225e-07
1.11225e-07
1.11225e-07
1.11225e-07
1.11225e-07
1.11225e-07
1.11225e-07
1.11225e-07
1.11225e-07
1.11225e-07
1.11225e-07
1.11225e-07
1.11225e-07
1.11225e-07
1.11225e-07
1.11225e-07
1.11225e-07
1.11225e-07
1.11225e-07
1.11225e-07
1.11225e-07