/*--------------------------------*- C++ -*----------------------------------*\
  =========                 |
  \\      /  F ield         | OpenFOAM: The Open Source CFD Toolbox
   \\    /   O peration     | Website:  https://openfoam.org
    \\  /    A nd           | Version:  13
     \\/     M anipulation  |
\*---------------------------------------------------------------------------*/
FoamFile
{
    format      ascii;
    class       volVectorField;
    location    "0.0013";
    object      U;
}
// * * * * * * * * * * * * * * * * * * * * * * * * * * * * * * * * * * * * * //

dimensions      [0 1 -1 0 0 0 0];

internalField   nonuniform List<vector> 
33334
(
(0.0106383 -6.61045e-07 0)
(1.01489e-05 -3.62826e-09 0)
(1.30411e-09 -2.5205e-12 0)
(4.3139e-13 -1.47892e-14 0)
(3.10505e-14 -3.52582e-14 0)
(-7.36198e-14 -9.75269e-14 0)
(-1.5158e-13 -6.98445e-14 0)
(-9.44377e-14 -3.99964e-14 0)
(2.2819e-14 -8.16295e-14 0)
(-3.96519e-14 -8.22347e-14 0)
(-2.07689e-13 -1.35894e-13 0)
(-1.63998e-13 -5.7238e-14 0)
(-2.45864e-13 -1.94864e-14 0)
(-3.54367e-13 8.93951e-14 0)
(-2.68971e-13 1.25277e-13 0)
(-1.12518e-13 7.82217e-14 0)
(5.49484e-14 7.68404e-14 0)
(1.50862e-13 9.91896e-14 0)
(2.43851e-13 2.51406e-14 0)
(2.50595e-13 -5.33654e-14 0)
(1.11452e-13 -1.33965e-13 0)
(1.23295e-14 -1.97008e-13 0)
(3.26472e-14 -1.54817e-13 0)
(1.36336e-13 -9.26503e-14 0)
(2.30932e-13 -7.07177e-14 0)
(1.371e-13 -1.17324e-13 0)
(2.11924e-14 -1.33601e-13 0)
(-1.06099e-13 -7.64769e-14 0)
(-1.47649e-13 -9.35153e-14 0)
(-1.09483e-13 -9.51002e-14 0)
(-1.39501e-13 -1.08359e-13 0)
(-3.15813e-13 -1.15894e-14 0)
(-2.38972e-13 8.69175e-14 0)
(-1.1718e-13 9.60737e-14 0)
(-1.41879e-13 1.29505e-13 0)
(-4.39696e-14 6.58594e-14 0)
(4.32819e-14 1.21028e-13 0)
(7.9092e-14 6.30001e-14 0)
(5.04683e-15 -1.53662e-15 0)
(7.26117e-15 -6.30049e-14 0)
(-1.43575e-14 -1.06655e-13 0)
(-1.61679e-13 -1.29803e-13 0)
(-5.75366e-14 -9.11732e-14 0)
(-6.29391e-14 -1.62588e-13 0)
(-9.61365e-14 -6.37541e-14 0)
(3.18499e-14 8.68289e-15 0)
(-4.30349e-14 1.93078e-14 0)
(-1.45342e-14 -1.86023e-14 0)
(-7.33801e-14 -7.00808e-15 0)
(-3.14506e-13 -1.48914e-14 0)
(-2.62862e-13 8.902e-14 0)
(-1.5588e-13 5.7803e-14 0)
(-3.76082e-14 1.53505e-13 0)
(4.29926e-14 1.14752e-13 0)
(4.29175e-14 7.92121e-14 0)
(-5.30171e-14 1.20011e-13 0)
(-4.78241e-14 1.95712e-13 0)
(-1.92541e-14 1.78368e-13 0)
(-1.03992e-13 1.05319e-13 0)
(-3.71614e-14 -4.11071e-15 0)
(-9.44012e-14 -1.49388e-13 0)
(-8.56726e-14 -3.26284e-14 0)
(5.81247e-14 -5.86003e-14 0)
(3.77046e-14 -1.46648e-13 0)
(-2.6582e-15 -3.08449e-13 0)
(-6.89537e-14 -2.1844e-13 0)
(-2.72713e-13 -1.34506e-13 0)
(-2.60395e-13 5.70048e-14 0)
(-5.99197e-14 5.86728e-14 0)
(8.90274e-14 1.75402e-13 0)
(2.01967e-13 1.04919e-13 0)
(1.24745e-13 -1.88809e-14 0)
(6.36742e-14 -1.64741e-13 0)
(1.46361e-13 -1.158e-13 0)
(7.36191e-14 -6.17202e-14 0)
(6.63136e-14 -2.80295e-14 0)
(-7.89282e-14 -1.11111e-13 0)
(-1.25117e-13 2.34504e-14 0)
(2.85415e-14 4.45953e-14 0)
(-6.95795e-14 6.44745e-15 0)
(-1.01266e-13 -3.80866e-15 0)
(-1.4137e-13 7.10262e-15 0)
(-1.14769e-13 6.46101e-14 0)
(-9.97378e-14 6.51591e-14 0)
(-1.43981e-13 1.7267e-13 0)
(-8.40726e-14 1.22618e-13 0)
(5.54355e-14 1.58593e-13 0)
(1.25758e-13 6.56971e-14 0)
(6.29893e-14 1.04072e-13 0)
(-2.00935e-14 1.08194e-14 0)
(-4.08883e-14 -4.25507e-14 0)
(-2.03016e-13 -8.15394e-14 0)
(-2.4293e-13 -2.23068e-14 0)
(-2.23344e-14 -5.78467e-14 0)
(4.16593e-14 -3.11665e-14 0)
(-1.34045e-13 -6.33907e-14 0)
(-1.74629e-13 5.94784e-14 0)
(-7.35014e-14 8.17613e-14 0)
(-1.1951e-13 1.55713e-13 0)
(2.37659e-14 9.67914e-14 0)
(1.42008e-13 9.32389e-14 0)
(1.05357e-13 -4.30025e-14 0)
(-1.16345e-13 -4.87338e-14 0)
(-1.52091e-13 1.45879e-14 0)
(1.00271e-14 4.32811e-14 0)
(-4.65596e-14 -5.09723e-14 0)
(-1.78222e-13 9.44749e-14 0)
(-2.28874e-14 6.30167e-14 0)
(7.38876e-14 6.94914e-14 0)
(1.58884e-14 4.46475e-14 0)
(4.91672e-14 -1.80032e-15 0)
(9.40962e-14 2.34379e-14 0)
(1.10023e-13 -8.31668e-14 0)
(2.34073e-13 -1.30006e-14 0)
(2.27145e-13 -1.21649e-13 0)
(9.71327e-15 -1.14796e-13 0)
(-1.6067e-13 -7.13345e-14 0)
(-1.60509e-13 1.91323e-14 0)
(4.28375e-15 -2.02952e-14 0)
(6.50183e-14 -2.18271e-15 0)
(-1.89981e-13 -5.21155e-14 0)
(-2.06122e-13 3.73798e-14 0)
(-1.69412e-13 -9.58504e-16 0)
(-3.38823e-13 1.23642e-13 0)
(-1.34813e-13 1.12612e-13 0)
(1.98623e-14 1.69266e-13 0)
(7.58305e-14 6.47834e-14 0)
(-1.50459e-13 9.98652e-14 0)
(-2.50605e-13 3.59974e-14 0)
(3.37711e-14 8.09826e-14 0)
(-2.71596e-14 -2.67102e-14 0)
(-6.79821e-14 1.01918e-13 0)
(3.46498e-14 1.36887e-13 0)
(1.15251e-14 1.75856e-13 0)
(5.88452e-14 1.62929e-13 0)
(8.05349e-14 4.14555e-14 0)
(-7.51329e-14 2.46233e-14 0)
(-1.85352e-13 3.57937e-14 0)
(4.85432e-15 4.19981e-14 0)
(1.67468e-13 -6.99931e-14 0)
(9.81572e-14 -5.0071e-14 0)
(-2.01056e-14 4.04854e-14 0)
(-1.92853e-14 6.62096e-14 0)
(1.63347e-13 6.00977e-14 0)
(2.57781e-13 1.64723e-13 0)
(1.59174e-13 1.1436e-13 0)
(1.56147e-13 1.25268e-13 0)
(1.11464e-13 1.63515e-14 0)
(-7.61536e-14 9.70496e-14 0)
(9.7655e-15 5.97397e-14 0)
(1.69453e-13 1.02279e-13 0)
(1.19491e-13 -6.15589e-15 0)
(-1.19654e-13 -1.41986e-14 0)
(-1.14804e-13 -9.29201e-14 0)
(9.37588e-14 -8.65858e-14 0)
(-1.89996e-14 -1.10195e-13 0)
(-5.66255e-14 5.40614e-14 0)
(7.96087e-14 8.06172e-14 0)
(9.19229e-14 1.48769e-13 0)
(8.9055e-14 5.86076e-14 0)
(-6.93118e-14 -9.87259e-14 0)
(-3.03637e-13 -1.37837e-14 0)
(-1.91745e-13 -6.87067e-14 0)
(8.08603e-14 -4.14184e-14 0)
(1.52078e-13 -2.07416e-13 0)
(6.04895e-14 -1.37284e-13 0)
(-5.48117e-14 -2.79427e-14 0)
(0.0106388 -9.80493e-08 0)
(1.01494e-05 -1.01157e-10 0)
(1.3044e-09 -1.36792e-13 0)
(4.6176e-13 -1.91469e-13 0)
(-4.69294e-14 -1.77104e-13 0)
(-1.28542e-13 -1.50689e-13 0)
(-1.65782e-13 -1.66687e-13 0)
(-1.5908e-13 -2.06426e-13 0)
(-9.20732e-14 -1.85899e-13 0)
(-1.33356e-13 -2.92175e-13 0)
(-1.82691e-13 -2.73761e-13 0)
(-1.61701e-13 -2.27573e-13 0)
(-2.22987e-13 -1.9331e-13 0)
(-2.43453e-13 -2.57269e-14 0)
(-2.11858e-13 -4.29783e-14 0)
(-1.27658e-13 3.76173e-14 0)
(7.4263e-14 -3.45038e-14 0)
(1.53534e-13 -6.7559e-14 0)
(2.08306e-13 -1.6011e-14 0)
(1.67251e-13 -1.38713e-13 0)
(2.31895e-14 -1.83046e-13 0)
(5.26145e-14 -1.73452e-13 0)
(1.80289e-13 -1.68295e-13 0)
(2.29315e-13 -3.29898e-14 0)
(1.86376e-13 -1.10764e-13 0)
(7.53276e-14 -2.28455e-13 0)
(2.72478e-14 -2.44876e-13 0)
(-5.70259e-14 -1.60134e-13 0)
(-1.22685e-13 -1.80022e-13 0)
(-1.3546e-13 -1.07537e-13 0)
(-1.5672e-13 -1.39183e-13 0)
(-2.25611e-13 -1.04845e-13 0)
(-1.91579e-13 -2.57469e-14 0)
(-7.85715e-14 -5.15455e-15 0)
(-9.34802e-14 6.15307e-15 0)
(-7.95934e-14 2.55409e-14 0)
(-3.3098e-16 -6.76456e-14 0)
(-5.56463e-15 -5.82134e-15 0)
(-3.3614e-14 -1.22866e-13 0)
(-2.62893e-14 -1.08645e-13 0)
(-8.53307e-14 -2.69572e-13 0)
(-1.33586e-13 -3.63992e-13 0)
(-4.29633e-14 -3.3051e-13 0)
(6.35999e-15 -3.85168e-13 0)
(-3.3157e-14 -2.15788e-13 0)
(3.54907e-14 -1.09689e-13 0)
(-1.254e-14 -1.23933e-13 0)
(-4.3004e-14 -1.27927e-14 0)
(-1.57233e-13 -1.55427e-13 0)
(-2.18728e-13 -2.15881e-13 0)
(-1.73989e-13 -3.65831e-14 0)
(-1.4845e-13 8.32542e-14 0)
(-1.46692e-13 7.1135e-14 0)
(-3.0622e-14 1.25263e-13 0)
(9.59568e-14 5.05568e-14 0)
(7.73858e-16 1.50594e-13 0)
(-6.48754e-14 8.64052e-14 0)
(-8.82295e-14 4.03229e-14 0)
(-1.37365e-13 -9.42634e-14 0)
(-1.16748e-13 -2.43357e-13 0)
(-2.74635e-14 -3.38223e-13 0)
(-7.05899e-14 -2.07924e-13 0)
(-1.21353e-14 -9.96995e-14 0)
(-6.6742e-14 -1.82149e-13 0)
(-5.41437e-14 -1.37198e-13 0)
(-6.19888e-14 -2.26037e-13 0)
(-1.41134e-13 -2.50662e-13 0)
(-1.14248e-13 -1.10609e-13 0)
(-1.35396e-14 -4.2968e-14 0)
(4.356e-14 -2.95005e-15 0)
(5.58404e-14 -1.83366e-14 0)
(3.14402e-14 -1.61903e-13 0)
(8.65477e-14 -1.72507e-13 0)
(2.11993e-13 -2.76987e-13 0)
(1.8239e-13 -2.52298e-13 0)
(7.32776e-14 -2.23351e-13 0)
(-1.42815e-14 -2.56382e-13 0)
(-9.05483e-14 -1.28199e-13 0)
(-7.27449e-14 -2.94759e-14 0)
(-7.39933e-14 -6.67247e-14 0)
(-1.45523e-13 -1.60087e-14 0)
(-1.8359e-13 -8.98397e-14 0)
(-1.01968e-13 -2.65745e-14 0)
(-3.41656e-14 -6.35101e-14 0)
(1.84365e-14 7.55557e-14 0)
(-8.83041e-14 1.05619e-13 0)
(-4.49623e-14 9.19319e-14 0)
(6.92211e-14 3.78835e-14 0)
(5.49552e-14 -5.66606e-14 0)
(-1.14748e-13 -1.14789e-13 0)
(-9.42004e-14 -2.90016e-13 0)
(-1.77689e-13 -3.30482e-13 0)
(-1.12674e-13 -2.41988e-13 0)
(-4.31e-14 -1.22396e-13 0)
(-5.51963e-14 -1.69296e-13 0)
(-1.2868e-13 -2.22688e-13 0)
(-7.69805e-14 -7.24475e-14 0)
(-3.39729e-14 4.81047e-15 0)
(-1.36445e-13 2.76834e-14 0)
(1.62438e-14 -3.63263e-14 0)
(1.06127e-13 -3.8828e-14 0)
(-1.53824e-14 -1.01051e-13 0)
(-7.12253e-14 -2.18504e-13 0)
(-7.45744e-14 -1.54322e-13 0)
(-5.7627e-14 -9.30003e-14 0)
(-2.22737e-14 -7.15763e-14 0)
(-6.01177e-14 2.66388e-14 0)
(-5.88694e-15 6.6672e-16 0)
(9.50394e-14 -3.97288e-14 0)
(5.43578e-14 -5.98006e-14 0)
(8.86964e-14 -1.28546e-14 0)
(5.1456e-14 -3.07878e-14 0)
(8.6538e-14 2.04981e-14 0)
(2.00268e-13 -2.64294e-14 0)
(1.25054e-13 -7.68984e-14 0)
(-3.13938e-14 -1.61769e-13 0)
(-9.23847e-14 -2.12719e-13 0)
(-1.09605e-13 -1.54912e-13 0)
(-3.8236e-14 -1.00176e-13 0)
(-5.46607e-14 -2.00129e-13 0)
(-1.67086e-13 -1.96031e-13 0)
(-1.63386e-13 -6.33346e-14 0)
(-1.59138e-13 -7.1527e-14 0)
(-2.66856e-13 3.62173e-14 0)
(-9.31442e-14 8.23626e-14 0)
(7.68415e-14 8.99804e-14 0)
(-7.10926e-15 9.66427e-14 0)
(-1.74808e-13 1.55422e-14 0)
(-2.44499e-13 1.42841e-13 0)
(-3.87368e-14 1.24377e-13 0)
(-7.32554e-14 7.65115e-14 0)
(-6.65133e-14 5.82161e-14 0)
(3.29526e-14 -5.37614e-14 0)
(8.68318e-14 -4.76453e-14 0)
(9.91358e-14 -8.24974e-15 0)
(-2.80658e-14 2.68086e-14 0)
(-6.23175e-14 -5.06436e-14 0)
(-1.46869e-13 6.79027e-14 0)
(-7.25193e-14 4.55042e-14 0)
(4.55669e-14 -3.57568e-14 0)
(8.92285e-14 -1.43026e-13 0)
(3.04476e-14 -7.78481e-14 0)
(7.03877e-14 1.52024e-14 0)
(2.20294e-13 1.66092e-14 0)
(2.19695e-13 -6.16061e-14 0)
(1.48904e-13 -1.40274e-13 0)
(1.30449e-13 -5.36613e-14 0)
(1.07612e-13 -1.48541e-13 0)
(-3.78263e-14 -6.94513e-14 0)
(3.35107e-14 -3.31177e-14 0)
(2.14119e-13 -7.78562e-14 0)
(7.0974e-14 -7.88104e-14 0)
(-1.08771e-13 -1.31288e-13 0)
(-1.18542e-13 -2.04905e-14 0)
(-8.36153e-15 -1.06753e-13 0)
(-3.14178e-14 -1.22276e-13 0)
(-6.3951e-15 -4.67363e-14 0)
(1.11714e-13 -9.48997e-14 0)
(1.16357e-13 -5.68141e-14 0)
(5.74612e-14 -1.30871e-13 0)
(-6.87746e-14 -2.14681e-13 0)
(-2.16565e-13 -1.69645e-13 0)
(-2.47328e-13 1.39375e-14 0)
(-3.48002e-14 -5.85971e-14 0)
(6.16635e-14 -1.85688e-13 0)
(1.15298e-13 -1.88777e-13 0)
(5.84463e-14 -6.89333e-14 0)
(0.0106392 -9.79721e-08 0)
(1.01501e-05 -1.01476e-10 0)
(1.30417e-09 -1.26946e-13 0)
(4.20942e-13 -2.57394e-13 0)
(5.92444e-14 -2.17186e-13 0)
(-8.72026e-14 -1.91763e-13 0)
(-2.40507e-13 -3.12988e-13 0)
(-1.54711e-13 -3.67454e-13 0)
(-1.20261e-13 -3.14092e-13 0)
(-1.30925e-13 -3.65854e-13 0)
(-1.67823e-13 -2.47874e-13 0)
(-2.07596e-13 -2.46336e-13 0)
(-1.21571e-13 -1.52828e-13 0)
(-1.79134e-13 -1.69955e-13 0)
(-1.374e-13 -1.02934e-13 0)
(-7.14457e-14 -2.72643e-14 0)
(-7.98541e-15 -2.51392e-14 0)
(1.82253e-13 -7.94056e-14 0)
(2.14435e-13 2.18772e-14 0)
(1.37359e-13 -8.28254e-14 0)
(8.74187e-14 -5.8442e-14 0)
(6.15334e-14 -1.15777e-13 0)
(1.54133e-13 -9.15597e-14 0)
(2.3992e-13 -1.68334e-13 0)
(9.44064e-14 -1.06874e-13 0)
(1.59361e-14 -1.14666e-13 0)
(6.03836e-14 -1.34198e-13 0)
(-2.59176e-14 -1.87366e-13 0)
(-1.01788e-13 -1.44722e-13 0)
(-7.2915e-14 -1.93967e-13 0)
(-1.31169e-13 -1.50281e-13 0)
(-2.50379e-13 -1.0555e-13 0)
(-2.35729e-13 -1.38836e-13 0)
(-1.2491e-13 -9.34347e-14 0)
(-9.6232e-14 -1.64693e-13 0)
(-1.11027e-13 -2.05952e-13 0)
(7.27257e-15 -2.0109e-13 0)
(1.67486e-14 -2.61421e-13 0)
(-4.7018e-14 -2.85521e-13 0)
(-9.01776e-14 -2.8619e-13 0)
(-2.17885e-13 -3.36883e-13 0)
(-1.79048e-13 -3.59273e-13 0)
(-5.23027e-14 -3.60542e-13 0)
(7.53123e-14 -4.36333e-13 0)
(1.27789e-13 -3.98096e-13 0)
(4.54504e-14 -3.30349e-13 0)
(5.60209e-15 -3.0662e-13 0)
(-8.06137e-14 -2.16606e-13 0)
(-2.26936e-13 -2.81838e-13 0)
(-1.3732e-13 -3.01274e-13 0)
(-4.69376e-14 -2.14076e-13 0)
(-1.17142e-13 -1.72011e-13 0)
(-4.53143e-14 -8.59524e-14 0)
(-6.58887e-15 8.74196e-15 0)
(2.03869e-14 -2.63927e-14 0)
(-6.0447e-14 -2.0717e-14 0)
(-1.42421e-13 -2.72893e-15 0)
(-1.64156e-13 -1.09273e-13 0)
(-3.02243e-13 -2.03745e-13 0)
(-2.42253e-13 -3.40849e-13 0)
(-7.45563e-15 -4.1917e-13 0)
(1.13663e-13 -3.602e-13 0)
(3.8102e-14 -2.48079e-13 0)
(-2.61084e-14 -2.71677e-13 0)
(-7.02962e-14 -1.85875e-13 0)
(-1.55974e-13 -2.24691e-13 0)
(-1.82784e-13 -2.98947e-13 0)
(-6.91854e-14 -2.85495e-13 0)
(-1.49501e-14 -2.95638e-13 0)
(8.34043e-14 -2.52527e-13 0)
(3.65657e-14 -1.54239e-13 0)
(8.7623e-15 -2.25133e-13 0)
(5.16845e-14 -2.07522e-13 0)
(1.24932e-13 -2.27902e-13 0)
(1.68763e-13 -3.27573e-13 0)
(6.5772e-14 -3.86815e-13 0)
(6.15221e-15 -4.29828e-13 0)
(4.19751e-14 -3.42879e-13 0)
(8.31858e-16 -2.21947e-13 0)
(-7.01138e-14 -1.28867e-13 0)
(-1.40494e-13 -1.79269e-14 0)
(-1.50676e-13 4.75994e-14 0)
(-9.17562e-14 6.98464e-14 0)
(-5.10941e-14 -1.4471e-14 0)
(1.59068e-14 -9.04933e-14 0)
(-2.52562e-14 -3.72461e-14 0)
(-2.56578e-14 -5.79073e-14 0)
(3.67787e-15 6.56166e-15 0)
(-6.69528e-14 -1.22854e-13 0)
(-2.24903e-13 -1.92117e-13 0)
(-2.28578e-13 -2.33916e-13 0)
(-1.76611e-13 -2.58044e-13 0)
(-2.87191e-14 -2.77431e-13 0)
(3.31019e-14 -2.73001e-13 0)
(2.77121e-15 -2.81237e-13 0)
(-5.20416e-14 -2.55074e-13 0)
(-1.95228e-15 -1.76462e-13 0)
(-8.96802e-15 -1.80925e-13 0)
(-1.35906e-13 -1.4805e-13 0)
(-4.53548e-14 -1.1158e-13 0)
(7.497e-14 -2.09766e-13 0)
(-5.40628e-14 -2.64711e-13 0)
(-1.22966e-13 -2.36983e-13 0)
(-4.55501e-14 -2.54293e-13 0)
(5.54298e-14 -1.59781e-13 0)
(3.04355e-14 -2.65223e-14 0)
(-8.09752e-14 -9.63074e-14 0)
(-4.34448e-16 -4.80228e-14 0)
(7.44088e-14 -8.92632e-14 0)
(5.74501e-14 -1.15854e-13 0)
(1.09843e-13 -1.15198e-13 0)
(1.06728e-13 -1.00122e-13 0)
(1.07767e-13 -3.31431e-14 0)
(1.80367e-13 9.24544e-15 0)
(7.41448e-14 -1.7211e-14 0)
(-1.46073e-13 -9.66022e-14 0)
(-1.91397e-13 -1.69282e-13 0)
(-4.17483e-14 -1.82125e-13 0)
(-3.62341e-14 -2.48005e-13 0)
(-2.69833e-14 -2.78735e-13 0)
(-3.88091e-14 -1.37141e-13 0)
(-1.41937e-13 -9.89874e-15 0)
(-1.4553e-13 -2.08113e-14 0)
(-1.85261e-13 1.81982e-14 0)
(-1.02681e-13 7.54677e-14 0)
(5.06625e-14 7.18983e-15 0)
(8.57009e-15 1.89082e-14 0)
(-1.06156e-13 -1.23274e-14 0)
(-1.15461e-13 1.34108e-13 0)
(-3.60815e-14 1.98259e-13 0)
(-1.43437e-13 1.64302e-13 0)
(-2.24724e-13 9.30682e-14 0)
(-6.8405e-14 1.90932e-14 0)
(9.49229e-14 -6.73688e-14 0)
(1.36963e-13 -1.11633e-13 0)
(7.35463e-14 -1.48299e-14 0)
(5.8875e-16 -1.11427e-16 0)
(-5.12578e-14 -3.86183e-15 0)
(-5.41124e-14 1.49697e-13 0)
(-7.46785e-14 6.71574e-14 0)
(1.34002e-14 1.51678e-14 0)
(6.37794e-14 -4.11829e-14 0)
(6.79402e-14 -2.29232e-15 0)
(9.19843e-14 -3.74691e-14 0)
(9.89045e-14 -1.82104e-13 0)
(2.24812e-13 -2.13475e-13 0)
(1.73248e-13 -6.17046e-14 0)
(9.7125e-14 -1.3979e-13 0)
(3.29013e-14 -1.91558e-13 0)
(1.16932e-14 -9.8604e-14 0)
(1.87194e-13 -1.3368e-13 0)
(1.08962e-13 -1.76084e-13 0)
(-3.70693e-14 -2.31697e-13 0)
(-1.10749e-13 -1.36114e-13 0)
(-5.36522e-14 -4.70497e-14 0)
(-5.87519e-15 9.20449e-15 0)
(-7.6679e-14 -5.19361e-14 0)
(7.81207e-14 -9.04335e-14 0)
(1.08307e-13 -1.66288e-13 0)
(5.80925e-15 -1.61806e-13 0)
(-6.22845e-14 -1.90117e-13 0)
(-6.01932e-14 -1.90349e-13 0)
(-1.20329e-13 -1.10485e-13 0)
(-6.54148e-14 7.50049e-14 0)
(8.63514e-15 -5.72733e-15 0)
(1.19162e-13 -1.54306e-14 0)
(9.03506e-14 -7.14574e-14 0)
(0.0106397 -9.25876e-08 0)
(1.01507e-05 -9.40282e-11 0)
(1.30423e-09 -2.24144e-13 0)
(4.65831e-13 -1.7346e-13 0)
(9.38303e-15 -1.34531e-13 0)
(-1.83073e-13 -2.20254e-13 0)
(-2.78927e-13 -2.6405e-13 0)
(-1.50401e-13 -1.99979e-13 0)
(-9.5216e-14 -2.41802e-13 0)
(-8.06434e-14 -1.86e-13 0)
(-1.09574e-13 -1.18523e-13 0)
(-1.19729e-13 -4.9907e-14 0)
(-1.17726e-13 4.98017e-15 0)
(-1.85501e-13 -1.65203e-14 0)
(-9.12247e-14 3.94321e-14 0)
(-3.05838e-14 1.07055e-14 0)
(1.94718e-14 1.42772e-13 0)
(1.81917e-13 1.26734e-13 0)
(2.05776e-13 8.05146e-14 0)
(8.99154e-14 2.46866e-14 0)
(2.93146e-14 -4.50786e-14 0)
(3.11618e-14 -9.37415e-14 0)
(1.03591e-13 -9.66622e-14 0)
(1.91783e-13 -1.83891e-13 0)
(2.19535e-13 -1.24695e-13 0)
(7.09243e-14 -1.05284e-13 0)
(-1.82075e-14 -5.88288e-14 0)
(-7.2187e-14 -1.54451e-13 0)
(-1.2025e-13 -1.00487e-13 0)
(-1.42901e-13 -1.17795e-13 0)
(-9.45146e-14 -1.00676e-13 0)
(-2.11732e-13 -8.86358e-14 0)
(-1.95568e-13 -7.37588e-14 0)
(-1.32471e-13 -1.45437e-13 0)
(-2.24353e-13 -2.65195e-13 0)
(-8.70835e-14 -3.04096e-13 0)
(-2.7941e-15 -2.53357e-13 0)
(-5.12715e-14 -2.51216e-13 0)
(-5.95291e-14 -2.31424e-13 0)
(-1.09096e-13 -2.42063e-13 0)
(-1.45568e-13 -1.97184e-13 0)
(-1.184e-13 -2.34567e-13 0)
(-1.05504e-13 -2.006e-13 0)
(-3.29834e-14 -2.53973e-13 0)
(8.17339e-14 -2.93628e-13 0)
(5.9983e-14 -2.46811e-13 0)
(5.41687e-14 -2.70981e-13 0)
(-5.57457e-14 -2.32959e-13 0)
(-2.46666e-13 -2.06118e-13 0)
(-8.00975e-14 -1.69226e-13 0)
(-2.51931e-14 -2.02901e-13 0)
(-4.72318e-14 -2.45888e-13 0)
(1.20237e-14 -1.76885e-13 0)
(-1.48809e-14 -1.11912e-13 0)
(3.04803e-14 -1.31665e-13 0)
(-1.36238e-14 -1.6108e-13 0)
(-1.19172e-13 -9.7737e-14 0)
(-2.44171e-13 -1.10454e-13 0)
(-4.17468e-13 -2.04592e-13 0)
(-3.01948e-13 -2.54426e-13 0)
(-4.57301e-14 -3.24649e-13 0)
(1.45527e-13 -3.11011e-13 0)
(3.53024e-14 -2.58841e-13 0)
(-4.82374e-14 -2.87705e-13 0)
(-8.92133e-14 -2.18052e-13 0)
(-1.64826e-13 -2.29593e-13 0)
(-1.65934e-13 -2.07567e-13 0)
(-1.20748e-13 -2.27262e-13 0)
(7.96465e-15 -3.02301e-13 0)
(1.90443e-13 -2.27997e-13 0)
(3.65098e-14 -2.43464e-13 0)
(-7.55787e-14 -2.88501e-13 0)
(5.02433e-14 -2.65411e-13 0)
(1.30766e-13 -1.93336e-13 0)
(4.55753e-14 -3.28414e-13 0)
(1.88251e-14 -3.76261e-13 0)
(4.46159e-14 -4.17681e-13 0)
(9.81767e-14 -3.62329e-13 0)
(1.36842e-13 -2.46482e-13 0)
(1.00515e-13 -1.48052e-13 0)
(-9.32602e-15 -6.70609e-14 0)
(-1.00771e-13 -7.1696e-16 0)
(-1.82759e-13 -1.03467e-14 0)
(-1.54541e-13 -1.2447e-13 0)
(3.89276e-14 -2.46232e-13 0)
(-4.07948e-14 -2.43657e-13 0)
(-1.91425e-14 -2.54442e-13 0)
(-1.32032e-14 -1.93217e-13 0)
(-1.39804e-13 -2.06724e-13 0)
(-1.86365e-13 -1.83335e-13 0)
(-2.01605e-13 -1.46108e-13 0)
(-2.37521e-13 -1.9159e-13 0)
(-1.64208e-13 -2.57015e-13 0)
(-2.30574e-14 -3.51784e-13 0)
(1.82523e-14 -3.88337e-13 0)
(6.77617e-15 -3.80432e-13 0)
(4.67009e-14 -3.33798e-13 0)
(-4.64583e-14 -3.68893e-13 0)
(-7.64687e-14 -3.00064e-13 0)
(-2.37788e-14 -1.63151e-13 0)
(-3.27311e-14 -2.3919e-13 0)
(-1.08902e-14 -1.22028e-13 0)
(-6.20917e-14 -6.23491e-14 0)
(-2.79003e-14 -1.36698e-13 0)
(1.26925e-13 -1.19772e-13 0)
(3.1044e-14 -1.87415e-13 0)
(-4.70345e-14 -1.29199e-13 0)
(4.47396e-14 -6.72618e-14 0)
(4.94624e-14 -1.13492e-13 0)
(5.03744e-14 -5.87451e-14 0)
(8.43392e-14 -1.96465e-14 0)
(1.29463e-13 -3.44651e-14 0)
(1.51912e-13 -7.39699e-15 0)
(1.69906e-13 -6.84064e-14 0)
(2.67395e-14 -1.41962e-13 0)
(-1.72571e-13 -1.11021e-13 0)
(-1.61305e-13 -4.75778e-14 0)
(-1.52804e-13 -1.26079e-13 0)
(-9.07978e-14 -2.21821e-13 0)
(4.85622e-14 -2.04296e-13 0)
(5.88956e-14 -1.65635e-13 0)
(-6.19631e-14 -1.48891e-13 0)
(-9.91643e-14 -9.13236e-14 0)
(-1.58363e-13 -1.00007e-13 0)
(-1.07255e-13 -1.63996e-14 0)
(-1.05607e-15 -3.40546e-14 0)
(-2.69728e-14 -6.00494e-15 0)
(-3.94407e-14 -1.72464e-14 0)
(-2.68638e-14 2.73853e-14 0)
(-8.00084e-14 4.73962e-14 0)
(-1.46706e-13 2.8135e-14 0)
(-2.17694e-13 8.00849e-14 0)
(-7.34277e-14 7.98235e-14 0)
(6.83197e-14 -4.89179e-14 0)
(1.83798e-13 -1.11313e-13 0)
(3.48724e-14 -1.52068e-13 0)
(-5.6563e-14 -8.04536e-14 0)
(7.37782e-14 -1.6674e-14 0)
(-2.15701e-14 5.68716e-14 0)
(-9.90423e-14 1.04816e-13 0)
(-5.87819e-14 1.11481e-13 0)
(-4.21217e-14 -3.74724e-14 0)
(5.98143e-14 -1.04251e-13 0)
(2.46698e-14 -7.7003e-14 0)
(8.65152e-14 -8.22863e-14 0)
(2.60195e-13 6.42779e-15 0)
(2.044e-13 -9.39899e-14 0)
(3.84756e-14 -2.71678e-14 0)
(-3.18477e-15 -7.28587e-14 0)
(8.30442e-14 -8.41375e-15 0)
(1.22283e-13 -7.72463e-14 0)
(5.37928e-14 -8.83305e-14 0)
(-4.07767e-15 -1.03057e-13 0)
(-1.28965e-15 -1.14719e-13 0)
(2.25373e-14 -1.05779e-13 0)
(-5.4768e-14 -8.27282e-14 0)
(-9.17447e-14 -1.34132e-13 0)
(4.56378e-14 -4.22762e-14 0)
(7.97733e-14 -1.44378e-13 0)
(5.83429e-14 -1.68378e-13 0)
(-8.43404e-14 -1.71556e-13 0)
(-1.00757e-13 -1.03545e-13 0)
(4.00405e-14 -9.29938e-14 0)
(-2.2685e-15 3.38833e-14 0)
(-2.3995e-14 1.12667e-13 0)
(1.98191e-14 7.20678e-14 0)
(2.45292e-14 -4.27315e-14 0)
(0.0106401 -9.21837e-08 0)
(1.01513e-05 -9.33153e-11 0)
(1.30433e-09 -3.16128e-13 0)
(5.27761e-13 -2.62253e-13 0)
(4.51812e-14 -3.6975e-13 0)
(-1.40707e-13 -3.37311e-13 0)
(-2.16798e-13 -2.54516e-13 0)
(-1.70444e-13 -2.72872e-13 0)
(-9.94669e-14 -2.29902e-13 0)
(-1.62611e-14 -1.70047e-13 0)
(-5.61791e-14 -8.62259e-14 0)
(-7.86306e-14 -1.9449e-14 0)
(-5.16566e-14 -2.07452e-14 0)
(-1.24925e-13 4.20497e-15 0)
(-1.26994e-13 1.80841e-15 0)
(1.41197e-14 5.4857e-14 0)
(7.31871e-14 5.41401e-15 0)
(1.09936e-13 1.80211e-14 0)
(1.10826e-13 -6.41325e-14 0)
(7.09083e-14 -1.65673e-13 0)
(1.37428e-14 -1.54909e-13 0)
(-1.39288e-14 -1.75731e-13 0)
(4.93225e-14 -1.92707e-13 0)
(1.7707e-13 -2.32916e-13 0)
(1.72518e-13 -2.63918e-13 0)
(3.90008e-14 -3.06693e-13 0)
(-2.71664e-14 -2.63443e-13 0)
(-2.86947e-14 -2.51981e-13 0)
(-1.27811e-14 -2.6797e-13 0)
(-2.90516e-14 -1.69914e-13 0)
(-8.85513e-14 -1.4914e-13 0)
(-2.08026e-13 -1.62819e-13 0)
(-2.48709e-13 -1.98776e-13 0)
(-2.39016e-13 -2.48335e-13 0)
(-2.68237e-13 -2.27168e-13 0)
(-9.9946e-14 -1.77507e-13 0)
(6.79237e-14 -2.27785e-13 0)
(6.28077e-15 -1.87455e-13 0)
(-7.71327e-14 -2.23477e-13 0)
(-7.85523e-14 -2.09248e-13 0)
(-1.92307e-13 -1.1728e-13 0)
(-1.57729e-13 -1.46866e-13 0)
(-6.16025e-14 -1.18327e-13 0)
(-4.30604e-14 -4.28811e-14 0)
(1.38641e-13 -8.3527e-14 0)
(3.18209e-14 -1.11999e-13 0)
(-2.26562e-14 -1.78975e-13 0)
(-3.15127e-14 -2.40747e-13 0)
(-1.84471e-13 -1.57812e-13 0)
(-1.26261e-13 -1.01251e-13 0)
(-5.91434e-14 -1.65103e-13 0)
(-4.4597e-14 -1.207e-13 0)
(6.83882e-14 -1.69893e-13 0)
(4.34575e-14 -1.78495e-13 0)
(-4.67924e-14 -1.77307e-13 0)
(-1.29754e-14 -1.44894e-13 0)
(-1.04178e-13 -2.17545e-13 0)
(-2.94878e-13 -2.85466e-13 0)
(-4.54694e-13 -2.88831e-13 0)
(-3.06709e-13 -2.05743e-13 0)
(-6.68414e-14 -1.69967e-13 0)
(1.27325e-13 -2.90166e-13 0)
(8.49742e-14 -3.3608e-13 0)
(3.85178e-14 -2.22025e-13 0)
(-5.19486e-14 -1.4757e-13 0)
(-1.75242e-13 -1.10893e-13 0)
(-2.06752e-13 -1.40053e-13 0)
(-1.71066e-13 -1.66591e-13 0)
(-5.25769e-15 -1.40561e-13 0)
(1.47516e-13 -2.68521e-13 0)
(3.54443e-14 -3.57847e-13 0)
(-1.95857e-14 -2.91655e-13 0)
(8.67464e-14 -2.82312e-13 0)
(2.84475e-14 -3.26677e-13 0)
(-9.5334e-15 -3.10767e-13 0)
(1.35562e-14 -2.89396e-13 0)
(5.10063e-14 -2.71534e-13 0)
(1.78547e-13 -2.75169e-13 0)
(1.86781e-13 -2.58872e-13 0)
(1.02373e-13 -2.81741e-13 0)
(2.08649e-14 -2.1787e-13 0)
(-7.71249e-14 -2.27499e-13 0)
(-2.18639e-13 -2.51669e-13 0)
(-2.80601e-13 -2.74204e-13 0)
(-1.11221e-13 -2.91941e-13 0)
(-4.38208e-14 -2.34309e-13 0)
(4.95496e-14 -2.84438e-13 0)
(1.0788e-13 -3.30198e-13 0)
(-2.33761e-14 -2.9303e-13 0)
(-1.29951e-13 -1.49787e-13 0)
(-3.02042e-13 -1.64333e-13 0)
(-3.10155e-13 -2.30716e-13 0)
(-2.03639e-13 -2.48626e-13 0)
(-8.28045e-14 -1.94904e-13 0)
(-4.82642e-14 -3.18368e-13 0)
(-3.08403e-14 -3.25155e-13 0)
(-1.18882e-14 -3.89274e-13 0)
(7.01954e-15 -4.20101e-13 0)
(6.26724e-14 -3.73108e-13 0)
(2.98118e-14 -2.70994e-13 0)
(9.57813e-14 -1.9068e-13 0)
(8.57763e-14 -3.60996e-14 0)
(-1.24014e-13 -7.6374e-14 0)
(-7.89257e-14 -4.90037e-14 0)
(3.98848e-14 -1.71194e-13 0)
(3.17003e-14 -2.28999e-13 0)
(4.35304e-14 -1.51504e-13 0)
(3.80433e-16 -1.77078e-13 0)
(6.31549e-14 -1.45308e-13 0)
(1.30192e-13 -6.94526e-14 0)
(1.29301e-13 2.33516e-14 0)
(1.25844e-13 2.46631e-14 0)
(9.47321e-14 -6.60675e-14 0)
(1.03644e-13 -1.30148e-13 0)
(1.25391e-14 -1.2161e-13 0)
(-1.33698e-13 -1.30985e-13 0)
(-1.96367e-13 -2.84657e-14 0)
(-2.05248e-13 -1.54517e-13 0)
(-7.67674e-14 -1.16444e-13 0)
(2.56886e-14 -1.63602e-13 0)
(5.64096e-14 -2.5599e-13 0)
(-3.79952e-14 -3.12396e-13 0)
(-8.74323e-14 -2.65514e-13 0)
(-1.12505e-13 -2.48454e-13 0)
(-5.01023e-14 -1.58088e-13 0)
(2.95061e-14 -6.40575e-14 0)
(5.52787e-15 -6.74026e-14 0)
(-6.64835e-14 -5.6703e-14 0)
(-4.50673e-14 -8.40837e-14 0)
(-8.2648e-14 -4.39697e-14 0)
(-8.70479e-14 -8.91826e-14 0)
(-1.43138e-13 -3.17314e-14 0)
(-1.23016e-13 7.25755e-14 0)
(-2.78062e-14 -5.80368e-15 0)
(6.44634e-14 -6.20838e-14 0)
(1.05593e-13 -8.54449e-14 0)
(1.05455e-13 1.64008e-14 0)
(9.1348e-14 8.72208e-14 0)
(2.67031e-14 2.59777e-14 0)
(-2.39097e-14 1.45138e-13 0)
(-1.24593e-13 1.0892e-13 0)
(-1.36643e-13 1.29844e-13 0)
(2.53935e-14 2.61887e-14 0)
(6.85298e-14 1.53355e-14 0)
(1.41141e-13 3.24297e-14 0)
(1.89229e-13 -1.82802e-14 0)
(1.52536e-13 -7.00648e-14 0)
(1.00774e-13 -7.74191e-15 0)
(5.93153e-14 6.49631e-14 0)
(5.57808e-14 -2.0101e-14 0)
(9.15746e-14 1.17144e-14 0)
(5.56468e-14 -2.56212e-15 0)
(-4.35652e-14 -3.04025e-14 0)
(-6.87493e-14 -7.61203e-14 0)
(-1.76352e-14 -1.34682e-13 0)
(-8.1353e-14 -1.8298e-13 0)
(-2.5312e-14 -1.59592e-13 0)
(7.44648e-14 -6.78374e-14 0)
(1.35552e-14 -6.78247e-14 0)
(-1.90257e-14 -1.39355e-13 0)
(-4.78097e-15 -1.25582e-13 0)
(1.05201e-14 -8.60766e-15 0)
(3.27903e-14 1.02836e-14 0)
(7.74595e-14 2.07305e-14 0)
(6.05749e-14 1.49869e-13 0)
(-9.95034e-15 1.23942e-13 0)
(3.00181e-15 1.09095e-13 0)
(0.0106405 -9.05384e-08 0)
(1.01518e-05 -9.16673e-11 0)
(1.30444e-09 -4.24993e-13 0)
(3.71802e-13 -4.10274e-13 0)
(2.51334e-15 -5.35159e-13 0)
(-4.39403e-14 -4.67866e-13 0)
(-1.89973e-13 -4.20112e-13 0)
(-1.28413e-13 -3.68411e-13 0)
(-5.19041e-14 -2.8796e-13 0)
(2.73027e-14 -2.13194e-13 0)
(1.46893e-14 -2.41698e-13 0)
(-3.15869e-14 -1.58223e-13 0)
(-9.05662e-14 -1.86255e-13 0)
(-1.32254e-13 -2.17048e-13 0)
(-4.58181e-14 -1.68293e-13 0)
(1.96073e-15 -4.60759e-14 0)
(9.01713e-15 -1.30581e-13 0)
(8.25065e-14 -1.63791e-13 0)
(2.80945e-14 -2.71362e-13 0)
(3.25106e-14 -2.48697e-13 0)
(2.10872e-14 -2.54247e-13 0)
(-2.78739e-14 -2.52021e-13 0)
(1.863e-14 -2.26736e-13 0)
(1.25197e-13 -2.24929e-13 0)
(1.08188e-13 -3.34222e-13 0)
(5.27727e-14 -3.79005e-13 0)
(1.54261e-14 -3.57511e-13 0)
(-2.85568e-14 -3.9478e-13 0)
(-1.47708e-14 -4.25424e-13 0)
(1.12677e-14 -3.55483e-13 0)
(-6.78375e-14 -3.61426e-13 0)
(-2.21767e-13 -2.78548e-13 0)
(-2.51286e-13 -3.05228e-13 0)
(-1.7149e-13 -2.58725e-13 0)
(-1.8026e-13 -2.3057e-13 0)
(-1.12383e-13 -2.46764e-13 0)
(-8.70536e-15 -2.76477e-13 0)
(7.75645e-15 -3.73906e-13 0)
(-6.82932e-14 -3.21319e-13 0)
(-3.21322e-14 -3.35366e-13 0)
(-1.02416e-13 -2.04364e-13 0)
(-1.31302e-13 -1.50654e-13 0)
(-2.82432e-14 -2.11397e-13 0)
(-7.99571e-15 -1.77816e-13 0)
(2.72348e-14 -1.99917e-13 0)
(-4.49918e-15 -2.45897e-13 0)
(-5.70294e-14 -2.30807e-13 0)
(-5.49612e-14 -2.22906e-13 0)
(-9.6094e-14 -2.65486e-13 0)
(-1.16856e-13 -2.12954e-13 0)
(-4.74668e-14 -2.65239e-13 0)
(-4.40357e-14 -2.07468e-13 0)
(6.33404e-15 -2.17708e-13 0)
(2.65173e-14 -2.4932e-13 0)
(9.28176e-15 -1.68827e-13 0)
(-3.49016e-14 -1.50208e-13 0)
(-2.07043e-13 -2.39627e-13 0)
(-3.09768e-13 -3.04346e-13 0)
(-3.37039e-13 -1.79765e-13 0)
(-2.13389e-13 -1.44557e-13 0)
(-1.51395e-13 -9.52782e-14 0)
(-1.24797e-14 -2.03103e-13 0)
(8.70986e-14 -3.01868e-13 0)
(1.30438e-13 -1.48498e-13 0)
(2.7788e-15 -2.02057e-13 0)
(-1.85894e-13 -2.7724e-13 0)
(-2.05481e-13 -3.10327e-13 0)
(-1.22278e-13 -2.63703e-13 0)
(-4.49197e-14 -2.3819e-13 0)
(-1.32407e-14 -2.92692e-13 0)
(1.96354e-15 -3.90513e-13 0)
(2.84452e-14 -3.33864e-13 0)
(5.49446e-14 -3.50241e-13 0)
(4.55711e-14 -3.8599e-13 0)
(3.08861e-14 -3.74556e-13 0)
(7.04644e-15 -3.30496e-13 0)
(5.34744e-14 -3.02333e-13 0)
(1.26498e-13 -3.3723e-13 0)
(1.22279e-13 -3.61814e-13 0)
(1.33732e-13 -3.77816e-13 0)
(3.91875e-14 -2.98001e-13 0)
(-1.24456e-13 -2.64635e-13 0)
(-1.6871e-13 -3.57012e-13 0)
(-2.10577e-13 -3.19572e-13 0)
(1.86419e-14 -2.31367e-13 0)
(-2.30677e-14 -1.36101e-13 0)
(-9.45918e-14 -1.66046e-13 0)
(3.92701e-14 -2.84677e-13 0)
(5.88016e-14 -3.11297e-13 0)
(-6.69657e-14 -2.99467e-13 0)
(-2.16449e-13 -1.91926e-13 0)
(-3.35306e-13 -1.97143e-13 0)
(-1.89382e-13 -2.14463e-13 0)
(-1.16921e-13 -1.67671e-13 0)
(-8.32104e-14 -2.11336e-13 0)
(-6.78673e-14 -2.52918e-13 0)
(-6.23551e-14 -2.30332e-13 0)
(-2.59645e-14 -1.79017e-13 0)
(3.22683e-14 -2.04992e-13 0)
(9.36784e-14 -1.9623e-13 0)
(1.64432e-13 -1.3174e-13 0)
(8.98183e-14 -1.93091e-13 0)
(-5.01424e-14 -1.84829e-13 0)
(-1.38873e-13 -1.67008e-13 0)
(-5.50535e-14 -2.00627e-13 0)
(9.51244e-14 -2.22999e-13 0)
(3.14491e-14 -1.43257e-13 0)
(1.07202e-14 -9.68373e-14 0)
(1.42225e-13 -1.22523e-13 0)
(1.51633e-13 -1.2266e-13 0)
(1.47711e-13 -1.03073e-13 0)
(7.39073e-14 -7.70553e-14 0)
(1.73427e-14 -3.46223e-14 0)
(1.00089e-13 -3.60352e-14 0)
(1.55192e-14 -6.30421e-14 0)
(-5.04695e-14 -1.03521e-13 0)
(-1.82826e-13 -2.87166e-14 0)
(-2.25314e-13 1.22963e-14 0)
(-1.03982e-13 -8.46762e-14 0)
(-2.90077e-14 -1.60175e-13 0)
(-5.35936e-14 -1.66854e-13 0)
(-5.74908e-14 -1.90489e-13 0)
(-3.86002e-14 -1.80423e-13 0)
(-4.46105e-14 -1.76381e-13 0)
(1.06762e-14 -1.76165e-13 0)
(4.95126e-14 -1.35059e-13 0)
(-1.76238e-14 -1.73928e-13 0)
(-6.22316e-14 -1.27629e-13 0)
(-1.75587e-15 -5.37409e-14 0)
(-7.00178e-14 -3.62317e-14 0)
(-1.17369e-13 -1.00085e-13 0)
(-3.49576e-14 -1.23787e-13 0)
(-5.25948e-14 -7.5972e-14 0)
(-3.78218e-14 -5.82688e-14 0)
(8.73817e-14 -2.40816e-15 0)
(1.35328e-13 -5.1084e-15 0)
(1.17394e-13 8.91572e-14 0)
(3.23424e-14 9.26197e-14 0)
(-4.02384e-15 3.23199e-14 0)
(-2.86712e-15 -2.78031e-14 0)
(-5.92631e-14 2.45975e-14 0)
(-1.00225e-13 7.7953e-14 0)
(-3.16547e-14 1.52192e-14 0)
(5.66725e-14 -2.68065e-14 0)
(5.28878e-14 -3.55108e-14 0)
(1.57594e-13 -8.58763e-14 0)
(2.07283e-13 -4.56196e-14 0)
(1.13941e-13 -7.1571e-14 0)
(-2.33607e-14 -4.29436e-14 0)
(4.06743e-14 -9.253e-14 0)
(1.14791e-13 -6.01514e-14 0)
(-1.43887e-14 -1.36492e-13 0)
(-5.71114e-14 -9.37029e-14 0)
(-8.65909e-14 -4.43662e-14 0)
(-5.95549e-14 -3.45633e-14 0)
(-7.91925e-14 -1.45471e-13 0)
(2.1815e-14 -9.61231e-14 0)
(1.04545e-13 -1.64916e-13 0)
(8.54074e-15 -1.36409e-13 0)
(-2.81606e-14 -2.0177e-13 0)
(1.65624e-14 -1.84376e-13 0)
(2.62177e-14 -1.14772e-13 0)
(4.86518e-14 4.25427e-14 0)
(1.41125e-13 8.25055e-14 0)
(8.82045e-14 5.65044e-14 0)
(1.57318e-14 3.74401e-14 0)
(-6.3554e-14 -4.62263e-15 0)
(0.010641 -8.82147e-08 0)
(1.01524e-05 -8.93822e-11 0)
(1.30455e-09 -3.67936e-13 0)