/*--------------------------------*- C++ -*----------------------------------*\
  =========                 |
  \\      /  F ield         | OpenFOAM: The Open Source CFD Toolbox
   \\    /   O peration     | Website:  https://openfoam.org
    \\  /    A nd           | Version:  13
     \\/     M anipulation  |
\*---------------------------------------------------------------------------*/
FoamFile
{
    format      ascii;
    class       volVectorField;
    location    "0.0006";
    object      U;
}
// * * * * * * * * * * * * * * * * * * * * * * * * * * * * * * * * * * * * * //

dimensions      [0 1 -1 0 0 0 0];

internalField   nonuniform List<vector> 
33333
(
(1.33652e-13 -1.14368e-13 0)
(5.69859e-14 -1.0762e-13 0)
(6.16685e-14 -4.00151e-14 0)
(1.08041e-13 -1.08572e-13 0)
(-4.85814e-14 -1.35306e-13 0)
(-5.12023e-14 -6.11174e-14 0)
(8.56099e-14 -2.61179e-14 0)
(1.38604e-13 -8.67597e-14 0)
(-6.63408e-14 -1.17563e-13 0)
(-2.2523e-13 -9.2064e-14 0)
(-4.2909e-14 -6.66114e-14 0)
(7.10759e-14 -1.24868e-13 0)
(-1.99662e-13 -1.24907e-13 0)
(-2.67385e-13 -2.29784e-14 0)
(-5.87477e-14 4.71857e-14 0)
(-2.08005e-14 -1.0015e-13 0)
(1.75396e-14 -7.47483e-14 0)
(1.32559e-13 -1.51169e-13 0)
(1.17011e-13 -1.78593e-13 0)
(8.46217e-14 -1.69671e-13 0)
(-4.50357e-14 -1.53962e-13 0)
(-1.29307e-13 -3.98725e-14 0)
(-1.84165e-13 1.08779e-13 0)
(-1.97866e-13 9.24994e-14 0)
(-1.88204e-13 1.39513e-13 0)
(-4.21386e-14 6.75643e-14 0)
(1.65908e-13 5.36414e-14 0)
(2.83092e-13 -2.86198e-14 0)
(2.06218e-13 -1.0673e-13 0)
(6.72018e-14 -1.3323e-13 0)
(-4.62123e-14 -7.89397e-15 0)
(-1.29028e-13 1.25432e-13 0)
(-5.12554e-14 4.08072e-14 0)
(1.12343e-13 -1.16612e-14 0)
(6.54708e-14 -1.53794e-13 0)
(-2.2125e-14 -1.60717e-13 0)
(-7.17871e-15 -1.91644e-13 0)
(4.17355e-14 -1.10482e-13 0)
(-6.91761e-14 -5.96439e-14 0)
(-1.6346e-13 1.96879e-14 0)
(1.8895e-14 -4.32936e-14 0)
(1.60828e-13 -1.0386e-13 0)
(1.16784e-13 -1.47229e-13 0)
(5.3199e-14 -1.46485e-13 0)
(9.50582e-14 -1.20025e-13 0)
(3.70536e-14 -8.43206e-14 0)
(-2.76545e-14 -5.42918e-14 0)
(-1.25361e-13 -1.60735e-14 0)
(-3.79498e-15 -7.65241e-14 0)
(4.08003e-14 -1.25358e-13 0)
(3.23486e-14 -8.31086e-14 0)
(1.64069e-14 -1.47971e-13 0)
(1.30793e-13 -1.10271e-13 0)
(1.98989e-13 -1.1918e-13 0)
(9.70566e-14 -4.77685e-14 0)
(6.24048e-14 -1.01619e-13 0)
(-2.93804e-14 -1.16237e-13 0)
(2.76514e-14 -1.78534e-13 0)
(-3.07694e-14 -1.95584e-13 0)
(-2.83749e-15 -1.49335e-13 0)
(-6.35029e-14 -1.26762e-13 0)
(-1.42173e-13 -1.61473e-13 0)
(-2.00918e-13 -4.00521e-14 0)
(-3.6919e-13 4.24422e-14 0)
(-2.61444e-13 1.4196e-13 0)
(-7.92743e-14 1.72853e-14 0)
(1.27832e-13 9.51016e-14 0)
(1.79959e-13 3.22867e-14 0)
(1.99993e-13 7.15891e-15 0)
(2.27462e-13 -9.62649e-14 0)
(6.56471e-14 -1.99996e-13 0)
(-1.14048e-13 -1.2303e-13 0)
(-7.957e-14 1.1107e-13 0)
(7.93399e-14 5.08273e-14 0)
(1.6686e-13 -3.81323e-14 0)
(6.68087e-14 -4.40354e-14 0)
(-1.07494e-13 -3.45893e-14 0)
(5.453e-14 1.71602e-14 0)
(1.21789e-13 -5.3474e-14 0)
(-4.72137e-14 -5.86463e-14 0)
(-1.57085e-13 -2.25458e-15 0)
(-1.77372e-13 9.8649e-14 0)
(-3.78883e-14 -2.22764e-14 0)
(-3.10046e-14 -1.06945e-13 0)
(-4.21226e-14 -1.42387e-13 0)
(8.35984e-14 -1.1532e-13 0)
(1.32058e-13 -2.22904e-13 0)
(3.73238e-14 -2.0993e-13 0)
(6.28055e-14 -2.36651e-13 0)
(1.61895e-14 -2.75065e-13 0)
(-3.70375e-14 -3.21827e-13 0)
(-1.18264e-13 -2.25008e-13 0)
(-1.41861e-13 -9.05307e-14 0)
(8.22582e-14 -5.64228e-14 0)
(1.91552e-13 -3.51118e-14 0)
(5.81108e-15 2.18658e-15 0)
(-2.30468e-13 -3.37301e-14 0)
(-2.55818e-13 5.09732e-14 0)
(3.05256e-14 1.02501e-14 0)
(1.80203e-13 -8.69362e-15 0)
(1.9725e-13 -1.01619e-13 0)
(5.56996e-14 -2.13633e-13 0)
(9.7125e-14 -1.52796e-13 0)
(1.62407e-13 -1.47041e-13 0)
(2.12348e-14 -1.25991e-13 0)
(-1.45206e-14 -1.6694e-13 0)
(-1.98163e-14 -1.16316e-13 0)
(-1.04872e-13 -1.69233e-13 0)
(-1.63787e-13 -2.07261e-13 0)
(-1.88064e-13 -9.36638e-14 0)
(-1.24227e-13 -6.00768e-14 0)
(-8.8836e-14 -1.01156e-13 0)
(-1.03312e-13 -8.21939e-14 0)
(-5.44992e-14 -1.32335e-14 0)
(7.87022e-14 2.67268e-14 0)
(1.95476e-13 -9.18411e-14 0)
(7.10605e-14 -1.38866e-13 0)
(2.23339e-14 -6.79115e-14 0)
(9.4154e-14 -8.68801e-14 0)
(1.55695e-13 -2.44169e-14 0)
(8.95242e-14 -6.36038e-14 0)
(1.40554e-14 2.85343e-15 0)
(2.43679e-14 7.06199e-14 0)
(1.03693e-13 -1.65101e-14 0)
(6.14832e-14 -7.35334e-14 0)
(1.57513e-13 -9.39337e-14 0)
(9.88484e-14 -9.06271e-14 0)
(1.37732e-14 -6.71832e-14 0)
(6.73865e-14 -8.47224e-14 0)
(8.83196e-14 -1.44699e-13 0)
(-8.43488e-14 -9.42781e-14 0)
(-9.63005e-14 2.95172e-14 0)
(-6.97635e-14 -1.07059e-13 0)
(-1.56467e-13 -2.31098e-13 0)
(-1.45034e-13 -1.56052e-13 0)
(-3.12273e-14 -4.42619e-14 0)
(4.67363e-14 -1.0248e-13 0)
(-1.14657e-13 -1.18948e-13 0)
(-1.97785e-13 -1.20231e-13 0)
(-2.20718e-13 -6.71924e-14 0)
(-9.03202e-14 -1.35312e-13 0)
(7.4542e-14 -1.27128e-13 0)
(7.70856e-14 -1.91314e-13 0)
(4.60265e-14 -1.92989e-13 0)
(1.35009e-13 -1.12793e-13 0)
(4.77775e-14 -4.90316e-14 0)
(-8.57423e-14 -4.05323e-14 0)
(-1.17659e-13 -2.12278e-14 0)
(-1.44268e-13 -1.93349e-14 0)
(-6.09926e-14 -1.59932e-15 0)
(8.99087e-14 -1.10926e-13 0)
(5.59888e-14 -2.46266e-13 0)
(8.68078e-14 -2.11377e-13 0)
(1.43025e-13 -1.70959e-13 0)
(8.27941e-14 -1.69569e-13 0)
(1.35339e-13 -5.45481e-14 0)
(1.39342e-13 1.03794e-14 0)
(-3.49281e-14 -1.02662e-13 0)
(-1.4376e-13 -1.05688e-13 0)
(-1.18744e-13 -1.99868e-13 0)
(-1.20938e-13 -1.58868e-13 0)
(-1.07687e-13 -1.63889e-13 0)
(-1.35654e-13 -1.74076e-14 0)
(-1.76872e-13 1.22262e-13 0)
(-7.67893e-14 1.82481e-13 0)
(2.60956e-14 6.09688e-14 0)
(1.94244e-13 -2.80915e-13 0)
(1.25226e-13 -2.52428e-13 0)
(8.84552e-14 -1.52421e-13 0)
(3.89675e-14 -1.00871e-13 0)
(-2.95674e-14 -1.33427e-13 0)
(-4.7787e-14 -6.75308e-14 0)
(4.03918e-14 -5.98392e-14 0)
(1.08072e-13 -1.51861e-13 0)
(-4.20977e-14 -1.38613e-13 0)
(-1.52611e-13 -1.62621e-13 0)
(-9.2741e-14 -1.23234e-13 0)
(-1.99177e-14 -2.82886e-13 0)
(-1.50452e-13 -2.6761e-13 0)
(-1.83872e-13 -1.35289e-13 0)
(-1.12255e-13 -8.42211e-14 0)
(-5.63518e-14 -1.26479e-13 0)
(-3.05938e-14 -1.23761e-13 0)
(3.53028e-14 -1.79208e-13 0)
(8.47058e-14 -1.56127e-13 0)
(2.03769e-14 -1.34463e-13 0)
(-3.30135e-14 -6.89177e-14 0)
(-5.99584e-14 -3.48595e-14 0)
(-6.87846e-14 1.44863e-14 0)
(-1.38144e-13 -1.65077e-14 0)
(-1.56904e-13 3.69974e-14 0)
(-9.46563e-14 1.00934e-13 0)
(9.53044e-14 4.98964e-14 0)
(1.93381e-13 -3.02862e-14 0)
(1.52424e-13 -6.48079e-14 0)
(1.06023e-13 -1.13907e-13 0)
(2.28605e-14 -6.02911e-14 0)
(-6.79359e-14 7.24276e-15 0)
(-6.31371e-14 -6.38985e-14 0)
(2.87563e-14 -1.15297e-13 0)
(2.20589e-15 -2.49185e-13 0)
(-3.2169e-14 -2.06137e-13 0)
(4.22945e-14 -1.86138e-13 0)
(8.12998e-14 -7.39953e-14 0)
(-6.13575e-14 -1.27723e-13 0)
(-1.20924e-13 -1.25294e-13 0)
(-3.38732e-14 -1.72607e-13 0)
(1.05021e-13 -2.11384e-13 0)
(5.81088e-14 -2.3532e-13 0)
(3.07e-14 -1.81101e-13 0)
(1.02005e-14 -1.92049e-13 0)
(2.40402e-14 -1.51217e-13 0)
(-1.36392e-14 -1.83957e-13 0)
(-3.27568e-14 -1.15828e-13 0)
(2.49985e-14 -9.39018e-14 0)
(8.9046e-14 -1.48502e-13 0)
(5.95141e-14 -7.20679e-14 0)
(1.96106e-14 -1.38923e-13 0)
(1.77721e-13 -7.62573e-14 0)
(2.14903e-13 -8.17231e-14 0)
(1.09179e-13 -1.26745e-13 0)
(5.75182e-15 -1.1445e-13 0)
(-4.66238e-14 -1.60296e-13 0)
(2.02662e-14 -2.31386e-13 0)
(5.71872e-14 -3.14524e-13 0)
(1.82444e-14 -2.96164e-13 0)
(-1.25648e-13 -2.96341e-13 0)
(-8.27873e-14 -1.49909e-13 0)
(-1.13033e-13 -4.531e-14 0)
(-3.13669e-13 -2.42502e-15 0)
(-2.50974e-13 7.35934e-14 0)
(-4.73148e-14 2.80796e-15 0)
(1.49701e-13 3.33466e-14 0)
(1.29546e-13 -7.32699e-15 0)
(1.312e-13 3.48018e-14 0)
(7.66426e-14 -7.28884e-14 0)
(-3.51981e-14 -1.29706e-13 0)
(1.64569e-15 -1.23469e-13 0)
(8.66153e-15 -3.32003e-14 0)
(1.76623e-14 -3.52713e-14 0)
(1.13272e-13 -1.47681e-13 0)
(7.09969e-14 -1.30797e-13 0)
(-3.54183e-14 -1.03022e-13 0)
(3.63401e-14 7.37092e-15 0)
(3.88359e-14 -5.15896e-14 0)
(-1.96103e-14 -5.3349e-14 0)
(-9.85828e-14 -1.03814e-13 0)
(-1.58011e-13 -6.07219e-14 0)
(-4.63382e-14 -2.86138e-14 0)
(5.90837e-15 -8.56814e-14 0)
(-2.2176e-14 -1.13347e-13 0)
(4.22351e-15 -1.99688e-13 0)
(6.21679e-14 -2.27499e-13 0)
(4.73737e-14 -1.88294e-13 0)
(1.25229e-15 -2.43163e-13 0)
(-3.58709e-14 -2.26016e-13 0)
(-9.87289e-15 -2.51154e-13 0)
(-1.55893e-14 -2.01599e-13 0)
(-7.11951e-14 -1.05501e-13 0)
(6.63459e-14 -4.17726e-14 0)
(1.40124e-13 -1.2137e-13 0)
(-3.28091e-14 -1.24998e-13 0)
(-2.43551e-13 -1.7869e-13 0)
(-2.1866e-13 -6.87501e-14 0)
(3.99261e-14 -1.10655e-13 0)
(1.77036e-13 -1.41904e-13 0)
(1.22182e-13 -1.36401e-13 0)
(8.5529e-14 -1.85719e-13 0)
(2.02832e-13 -1.20124e-13 0)
(1.61783e-13 -1.83573e-13 0)
(-2.43823e-14 -2.34568e-13 0)
(-5.50436e-14 -1.59417e-13 0)
(-4.218e-14 -1.93087e-13 0)
(-1.39718e-13 -2.26261e-13 0)
(-9.30159e-14 -2.31634e-13 0)
(-7.83417e-14 -1.73466e-13 0)
(-1.67571e-13 -2.2073e-13 0)
(-1.32426e-13 -1.31739e-13 0)
(-6.99787e-14 -4.17193e-14 0)
(-8.75313e-14 5.01813e-15 0)
(-8.79063e-15 1.35093e-14 0)
(1.55901e-13 -1.51552e-13 0)
(1.62448e-13 -2.37079e-13 0)
(1.02726e-13 -1.29405e-13 0)
(1.40742e-13 -7.69919e-14 0)
(7.82674e-14 -3.10391e-14 0)
(3.3182e-14 -7.97103e-14 0)
(6.91021e-14 -4.77343e-14 0)
(4.38312e-14 4.45816e-14 0)
(5.33673e-14 -2.92423e-14 0)
(4.89301e-14 -1.61949e-13 0)
(1.70962e-13 -1.62396e-13 0)
(1.39207e-13 -2.23195e-13 0)
(7.11545e-14 -1.47414e-13 0)
(-4.40414e-15 -8.08935e-14 0)
(-3.72553e-15 -1.66569e-13 0)
(4.44797e-14 -1.3726e-13 0)
(-5.37822e-14 -6.05968e-14 0)
(-2.13696e-13 -9.70336e-14 0)
(-2.03828e-13 -1.90407e-13 0)
(-5.60576e-14 -1.7129e-13 0)
(5.33791e-15 -1.09853e-13 0)
(4.22873e-15 -1.60765e-13 0)
(-9.16211e-14 -9.12221e-14 0)
(-2.11291e-13 -7.24647e-14 0)
(-2.30794e-13 -2.11738e-14 0)
(-6.57605e-14 -9.3714e-14 0)
(5.78778e-14 -1.33589e-13 0)
(1.44949e-14 -1.77485e-13 0)
(3.74769e-14 -1.41297e-13 0)
(1.29586e-13 -1.47758e-13 0)
(2.8963e-14 -1.7296e-13 0)
(-1.09625e-13 -2.15194e-13 0)
(-6.2315e-14 -1.67857e-13 0)
(-5.97353e-14 -1.15275e-13 0)
(-6.31311e-14 -7.33012e-14 0)
(-3.38324e-14 -7.65297e-14 0)
(3.38409e-14 -2.09573e-13 0)
(1.86004e-13 -1.70258e-13 0)
(1.33049e-13 -1.53874e-13 0)
(1.37434e-13 -1.83024e-13 0)
(2.26462e-13 -7.46131e-14 0)
(1.31142e-13 -9.38771e-14 0)
(-4.73412e-14 -1.28803e-13 0)
(-1.9915e-13 -1.97888e-13 0)
(-1.32276e-13 -1.93153e-13 0)
(-8.89802e-14 -2.56373e-13 0)
(-1.75876e-14 -1.64338e-13 0)
(-4.47693e-14 -2.50547e-14 0)
(-1.54165e-13 7.14162e-14 0)
(-8.35559e-14 1.21753e-13 0)
(4.72732e-14 1.15311e-13 0)
(1.65319e-13 -3.19524e-13 0)
(1.96118e-13 -2.92282e-13 0)
(1.74107e-13 -2.28812e-13 0)
(1.11666e-13 -1.66459e-13 0)
(-1.11108e-16 -1.20443e-13 0)
(3.23513e-14 -3.79142e-14 0)
(-5.79973e-15 -5.04191e-14 0)
(2.51122e-14 -1.41594e-13 0)
(1.40887e-14 -1.88774e-13 0)
(-1.37786e-13 -2.24059e-13 0)
(-1.70611e-13 -1.86781e-13 0)
(-1.68422e-13 -2.6568e-13 0)
(-6.71195e-14 -2.76289e-13 0)
(-1.10297e-13 -2.30095e-13 0)
(-6.02996e-14 -1.96482e-13 0)
(-2.11016e-14 -1.68536e-13 0)
(-1.69042e-14 -1.2763e-13 0)
(9.71456e-14 -1.31109e-13 0)
(1.30504e-13 -2.97777e-14 0)
(5.89574e-14 4.16986e-14 0)
(-1.78203e-14 3.93639e-14 0)
(-7.84608e-14 7.44841e-14 0)
(-1.52774e-13 -5.35266e-14 0)
(-1.40181e-13 -7.70444e-14 0)
(-2.60362e-14 -2.43713e-15 0)
(-2.58197e-14 1.0204e-13 0)
(5.64609e-14 1.04146e-13 0)
(1.16582e-13 4.62777e-14 0)
(9.82729e-14 1.46148e-14 0)
(6.94371e-14 2.28625e-14 0)
(4.64137e-14 -4.19067e-14 0)
(-1.20199e-13 -6.52567e-14 0)
(-1.23652e-13 -8.37354e-14 0)
(-5.24663e-14 -1.19436e-13 0)
(1.84274e-15 -1.80016e-13 0)
(1.98597e-14 -1.46281e-13 0)
(1.0948e-13 -1.69815e-13 0)
(5.03896e-14 -1.18146e-13 0)
(-1.19727e-13 -1.8751e-13 0)
(-1.74645e-13 -2.56745e-13 0)
(-5.34912e-14 -2.78359e-13 0)
(1.08106e-13 -2.76496e-13 0)
(1.55015e-13 -2.53624e-13 0)
(6.17632e-14 -1.86304e-13 0)
(1.9757e-14 -9.0704e-14 0)
(-2.55848e-14 -8.02631e-14 0)
(9.62542e-15 -1.35634e-13 0)
(6.44462e-14 -1.49668e-13 0)
(4.35759e-14 -1.19318e-13 0)
(1.12243e-13 -1.06651e-13 0)
(6.27556e-14 -7.796e-14 0)
(2.09075e-14 -1.0453e-13 0)
(1.95562e-13 -1.01433e-13 0)
(1.20744e-13 -1.1882e-13 0)
(6.06037e-14 -1.83715e-13 0)
(6.50943e-14 -1.70441e-13 0)
(-5.01463e-14 -1.55749e-13 0)
(-1.53524e-14 -1.15809e-13 0)
(-2.97365e-14 -2.17067e-13 0)
(-4.1043e-14 -2.37905e-13 0)
(-1.65666e-14 -2.77109e-13 0)
(5.17497e-14 -1.76885e-13 0)
(-1.08987e-13 -1.23425e-13 0)
(-2.19786e-13 -8.98647e-14 0)
(-2.00205e-13 2.92334e-14 0)
(-9.63627e-14 -5.51229e-14 0)
(1.08659e-13 -4.83063e-14 0)
(1.82698e-13 -1.11181e-13 0)
(1.08883e-13 -1.07242e-13 0)
(1.03369e-14 -4.12286e-14 0)
(-7.98942e-14 -1.22509e-15 0)
(7.3408e-15 -4.39737e-14 0)
(5.35492e-14 -1.15678e-13 0)
(-3.15828e-14 -1.44207e-13 0)
(5.07913e-14 -1.62865e-13 0)
(1.15507e-13 -1.10768e-13 0)
(7.44231e-14 -1.30912e-13 0)
(1.23059e-13 -1.92002e-14 0)
(2.25761e-14 -4.13193e-15 0)
(-1.39106e-13 6.63588e-14 0)
(-1.45158e-13 -3.4864e-14 0)
(-8.22469e-14 -4.05156e-14 0)
(-1.14519e-14 -4.17534e-14 0)
(-7.30648e-15 -1.15727e-13 0)
(-7.24808e-14 -1.64337e-13 0)
(-3.31379e-14 -1.6367e-13 0)
(1.27855e-13 -1.45675e-13 0)
(4.20216e-14 -1.08021e-13 0)
(-1.58125e-14 -1.04367e-13 0)
(-1.24585e-14 -9.75669e-14 0)
(-1.54742e-14 -1.48316e-13 0)
(-1.98921e-14 -1.64599e-13 0)
(-2.40161e-14 -1.55534e-13 0)
(6.45544e-14 -1.01864e-13 0)
(5.31968e-14 -6.37293e-14 0)
(-1.18995e-13 -1.27317e-13 0)
(-2.05997e-13 -1.29904e-13 0)
(-1.30071e-13 -5.63323e-14 0)
(2.11808e-14 -3.67465e-14 0)
(1.66132e-13 -1.0601e-13 0)
(1.85213e-13 -1.32968e-13 0)
(1.33398e-13 -9.40148e-14 0)
(1.88603e-13 -6.09884e-14 0)
(5.87702e-14 -1.73653e-13 0)
(7.16936e-15 -2.51422e-13 0)
(4.96317e-14 -1.36554e-13 0)
(-9.47199e-14 -1.70634e-13 0)
(-1.30953e-13 -1.46435e-13 0)
(-1.34617e-13 -1.91608e-13 0)
(-1.01589e-13 -2.58899e-13 0)
(-1.27537e-13 -2.07511e-13 0)
(-2.17385e-14 -1.49908e-13 0)
(-2.26411e-14 -8.79388e-14 0)
(-6.29777e-14 -3.32473e-14 0)
(-9.85809e-14 -6.15164e-14 0)
(4.32033e-15 -1.94829e-13 0)
(1.3371e-13 -2.67662e-13 0)
(1.83506e-13 -2.54723e-13 0)
(2.01951e-13 -1.37943e-13 0)
(9.48447e-14 -6.26078e-14 0)
(2.46285e-14 2.16156e-14 0)
(9.9921e-14 5.57489e-14 0)
(5.94327e-14 3.53699e-14 0)
(-5.38016e-14 -1.01613e-14 0)
(-1.94365e-15 -9.01931e-14 0)
(1.21798e-13 -3.5256e-14 0)
(1.14176e-13 -1.30563e-13 0)
(1.49643e-13 -5.90415e-14 0)
(3.55302e-15 -8.77506e-14 0)
(-3.26973e-14 -1.30489e-13 0)
(6.8489e-14 -2.21092e-13 0)
(-5.12315e-14 -1.67237e-13 0)
(-2.23609e-13 -1.24313e-13 0)
(-2.36703e-13 -1.35938e-13 0)
(-8.35373e-14 -1.17185e-13 0)
(-1.8831e-14 -1.24078e-13 0)
(6.98193e-14 -1.61086e-13 0)
(2.59889e-14 -8.53772e-14 0)
(-1.39439e-13 -3.3171e-14 0)
(-2.41808e-13 2.56946e-14 0)
(-1.57997e-13 -6.24942e-14 0)
(6.65705e-15 -1.20668e-13 0)
(4.41176e-14 -1.01367e-13 0)
(8.33706e-15 -6.99828e-14 0)
(3.11327e-14 -1.50371e-13 0)
(-5.40772e-14 -2.30057e-13 0)
(-9.16762e-14 -3.22754e-13 0)
(-8.01371e-15 -3.00358e-13 0)
(-3.67023e-14 -2.71488e-13 0)
(2.84087e-14 -1.36578e-13 0)
(-1.99604e-14 -8.18305e-14 0)
(2.88297e-14 -1.03615e-13 0)
(1.76235e-13 -1.48176e-13 0)
(1.04264e-13 -1.65819e-13 0)
(1.16947e-13 -1.35079e-13 0)
(2.28329e-13 -1.67059e-13 0)
(9.66061e-14 -2.18462e-13 0)
(-1.02827e-13 -1.62471e-13 0)
(-1.39148e-13 -2.67973e-13 0)
(-1.03841e-13 -2.41639e-13 0)
(-4.22762e-14 -2.44284e-13 0)
(8.32565e-14 -1.50845e-13 0)
(7.00747e-16 -9.9074e-14 0)
(-7.07583e-14 -4.14472e-14 0)
(-2.80609e-14 4.24287e-14 0)
(-1.30435e-14 -2.8785e-14 0)
(1.81487e-13 -1.53569e-13 0)
(1.45492e-13 -1.91673e-13 0)
(2.15355e-13 -2.28702e-13 0)
(1.90493e-13 -1.70907e-13 0)
(1.20989e-13 -1.02535e-13 0)
(3.82792e-14 -1.38644e-13 0)
(-2.48045e-14 -1.1084e-13 0)
(9.06966e-15 -6.20423e-14 0)
(-3.90469e-14 -9.95229e-14 0)
(-1.16139e-13 -1.02805e-13 0)
(-1.24655e-13 -9.26197e-14 0)
(-1.62001e-13 -3.56512e-14 0)
(-1.10633e-13 3.72661e-14 0)
(-9.88318e-14 -2.34705e-14 0)
(-1.03914e-14 -4.59298e-14 0)
(-3.22884e-14 -5.86485e-15 0)
(4.35458e-14 -8.59934e-15 0)
(1.83176e-13 -6.38749e-14 0)
(2.14851e-13 -2.30818e-15 0)
(4.68979e-14 1.619e-14 0)
(-4.15446e-14 3.22616e-14 0)
(-9.01933e-14 1.25021e-14 0)
(-1.71102e-13 -7.79657e-14 0)
(-6.13849e-14 -5.00012e-14 0)
(3.5017e-14 -4.96221e-14 0)
(2.29222e-14 -2.16227e-14 0)
(-6.41145e-15 -5.09805e-14 0)
(8.62825e-14 -9.0719e-14 0)
(1.37777e-13 2.36592e-14 0)
(5.98221e-14 6.69603e-14 0)
(-3.4077e-14 2.68128e-14 0)
(-1.45431e-13 -4.17038e-14 0)
(-1.20694e-13 -4.61255e-14 0)
(-5.26262e-14 -6.24484e-14 0)
(-3.43148e-14 -5.30811e-14 0)
(-6.67902e-14 -5.08179e-14 0)
(5.93065e-15 -1.17394e-13 0)
(5.68748e-14 -1.30243e-13 0)
(-1.61762e-13 -1.81959e-13 0)
(-2.03467e-13 -1.23305e-13 0)
(-2.52775e-14 -1.73966e-13 0)
(1.47342e-13 -1.86573e-13 0)
(2.23081e-13 -1.89576e-13 0)
(1.44046e-13 -1.25795e-13 0)
(2.24672e-14 -2.5389e-14 0)
(-5.40682e-14 -4.70578e-14 0)
(-5.06918e-14 -4.80939e-14 0)
(2.33104e-14 -9.51123e-14 0)
(8.07184e-14 -1.0259e-13 0)
(1.74456e-13 -4.00299e-14 0)
(4.945e-14 -6.2819e-14 0)
(-3.16553e-14 -6.34699e-14 0)
(1.63946e-13 -9.30833e-14 0)
(1.00834e-13 -1.32251e-13 0)
(4.11947e-14 -1.02257e-13 0)
(3.54679e-14 -1.42093e-13 0)
(-2.31297e-15 -1.84396e-13 0)
(1.23413e-15 -1.54696e-13 0)
(-5.60177e-14 -1.36191e-13 0)
(-4.24509e-14 -1.83075e-13 0)
(-6.1077e-14 -2.17421e-13 0)
(3.80691e-14 -2.09735e-13 0)
(-4.7106e-14 -1.50588e-13 0)
(-1.38324e-13 -1.96025e-13 0)
(-1.63993e-13 -8.74555e-14 0)
(-1.04255e-13 -1.03152e-13 0)
(8.0568e-14 -1.19091e-13 0)
(9.22193e-14 -1.91328e-13 0)
(1.38301e-13 -2.50725e-13 0)
(9.32304e-14 -1.61431e-13 0)
(-8.13433e-14 -1.12382e-13 0)
(-4.41543e-14 -9.79971e-14 0)
(-2.91809e-14 -1.80055e-13 0)
(9.22937e-15 -2.01788e-13 0)
(1.35622e-13 -7.67502e-14 0)
(9.83928e-14 -6.14491e-14 0)
(8.09703e-14 -9.64786e-14 0)
(1.87622e-13 -7.53486e-14 0)
(9.51352e-14 -4.15911e-14 0)
(-9.90026e-14 -2.66363e-14 0)
(-1.603e-13 5.39355e-14 0)
(-1.57551e-13 4.45363e-14 0)
(-1.00262e-13 -5.26676e-14 0)
(-3.21607e-14 -1.16447e-13 0)
(-1.90069e-14 -7.44436e-14 0)
(1.80596e-14 -6.81783e-15 0)
(1.20067e-13 -6.17921e-14 0)
(7.61144e-14 -2.65855e-14 0)
(-3.10911e-14 -2.47377e-14 0)
(-1.1155e-13 -8.02086e-14 0)
(-6.94023e-14 -1.72691e-13 0)
(4.3715e-14 -1.74048e-13 0)
(5.17148e-14 -1.32645e-13 0)
(1.04323e-13 -1.42597e-13 0)
(2.88048e-14 -5.58903e-14 0)
(-1.32559e-13 -5.42067e-14 0)
(-1.67693e-13 2.59522e-14 0)
(-4.38858e-14 1.31013e-14 0)
(-3.53438e-14 3.45596e-14 0)
(9.69908e-14 -3.78252e-14 0)
(1.57666e-13 -4.32792e-14 0)
(1.56825e-13 -1.06094e-13 0)
(1.24379e-13 -1.4445e-13 0)
(-3.03305e-14 -1.25388e-13 0)
(2.25465e-14 -1.74998e-13 0)
(9.83825e-14 -1.76701e-13 0)
(-7.39691e-14 -2.14953e-13 0)
(-1.34928e-13 -2.6585e-13 0)
(-1.7283e-13 -2.29835e-13 0)
(-3.98223e-14 -1.88209e-13 0)
(-3.80793e-14 -1.86868e-14 0)
(-5.63391e-14 -2.0286e-15 0)
(-2.58302e-14 2.63391e-14 0)
(-9.01797e-14 -1.59783e-14 0)
(-1.63717e-13 -1.69716e-14 0)
(-3.68397e-14 -3.63736e-15 0)
(8.82132e-14 -8.61125e-14 0)
(2.15027e-13 -8.73271e-14 0)
(2.93632e-13 -9.10345e-14 0)
(1.45399e-13 -6.25207e-14 0)
(1.11811e-13 -1.0445e-14 0)
(1.17678e-13 2.565e-14 0)
(4.53612e-15 -4.28773e-15 0)
(-8.85764e-14 -2.4266e-15 0)
(3.69633e-14 4.36002e-14 0)
(1.13533e-13 8.42078e-14 0)
(8.51373e-14 3.01339e-14 0)
(1.07406e-13 2.13222e-14 0)
(-9.08084e-14 -1.61419e-14 0)
(-1.07052e-13 -6.86087e-14 0)
(-1.60012e-14 -1.31613e-13 0)
(3.10175e-14 -2.19763e-13 0)
(-1.50352e-13 -2.06603e-13 0)
(-1.93241e-13 -9.70921e-14 0)
(-5.41756e-14 -7.81062e-14 0)
(-4.19939e-14 -8.69544e-14 0)
(3.68207e-14 -1.15812e-13 0)
(1.0176e-13 -7.34154e-14 0)
(-9.85645e-14 -5.92383e-14 0)
(-2.76976e-13 -1.15423e-13 0)
(-1.6058e-13 -1.32302e-13 0)
(4.02237e-14 -1.42395e-13 0)
(6.11239e-14 -2.08937e-13 0)
(-3.2075e-14 -2.21003e-13 0)
(-3.74091e-14 -1.70582e-13 0)
(-1.21169e-13 -1.821e-13 0)
(-1.64063e-13 -2.15978e-13 0)
(-4.66442e-14 -2.723e-13 0)
(1.12111e-13 -2.29869e-13 0)
(1.61722e-13 -9.78492e-14 0)
(-1.36496e-15 -1.0754e-13 0)
(-2.57657e-14 -9.05616e-14 0)
(1.29791e-13 -8.55986e-14 0)
(1.2729e-13 -9.83263e-14 0)
(1.13326e-13 -5.75547e-14 0)
(1.59957e-13 -9.91048e-14 0)
(1.03951e-13 -1.80111e-13 0)
(-8.09394e-14 -2.55376e-13 0)
(-1.41815e-13 -2.30436e-13 0)
(-3.57597e-14 -2.07713e-13 0)
(1.43309e-14 -9.80609e-14 0)
(5.65949e-14 -1.30712e-13 0)
(3.498e-14 -8.94205e-14 0)
(5.80767e-15 -1.03854e-13 0)
(-6.23571e-14 -7.41402e-14 0)
(-5.57356e-14 -1.01441e-13 0)
(1.68051e-13 -4.61737e-14 0)
(1.26913e-13 -5.05919e-14 0)
(1.72648e-13 -4.26767e-14 0)
(1.8756e-13 -9.65124e-14 0)
(8.64119e-14 -9.3383e-14 0)
(6.89789e-14 -1.38493e-13 0)
(7.70388e-14 -1.6099e-13 0)
(6.23256e-14 -9.92792e-14 0)
(-1.87416e-15 -2.88246e-14 0)
(-1.5668e-13 -1.67933e-14 0)
(-1.04536e-13 2.46481e-14 0)
(-7.67468e-14 9.24526e-14 0)
(-1.15676e-13 9.01187e-14 0)
(-1.86507e-13 5.7775e-14 0)
(-3.36531e-14 6.41359e-14 0)
(1.0874e-14 7.35545e-14 0)
(-3.31747e-14 8.35967e-14 0)
(1.3209e-13 2.81044e-14 0)
(2.35018e-13 -1.26122e-13 0)
(9.95555e-14 -7.0982e-14 0)
(-2.70562e-14 -3.86641e-14 0)
(-1.53903e-13 -4.10882e-14 0)
(-2.0784e-13 -2.30226e-14 0)
(-5.01694e-14 -5.74522e-14 0)
(4.35313e-14 -1.07769e-13 0)
(3.27717e-15 -1.20777e-13 0)
(-2.36655e-14 -1.49386e-13 0)
(1.32051e-13 -1.32937e-13 0)
(2.25615e-13 -7.86151e-14 0)
(8.91341e-14 -8.68219e-14 0)
(-4.53221e-14 -2.02332e-14 0)
(-1.95218e-13 1.09861e-14 0)
(-1.49454e-13 5.28182e-14 0)
(-8.60267e-14 2.97065e-14 0)
(-2.5387e-14 3.71785e-15 0)
(-5.60654e-14 3.0953e-15 0)
(-4.57606e-14 -2.95806e-14 0)
(-1.42157e-14 -5.21524e-14 0)
(-1.36086e-13 -8.09951e-14 0)
(-1.60329e-13 -4.89181e-14 0)
(-6.09847e-14 -3.95755e-14 0)
(1.20793e-13 -6.74567e-14 0)
(2.18877e-13 -1.87309e-13 0)
(2.22018e-13 -1.21824e-13 0)
(4.999e-14 -1.30513e-13 0)
(-6.66938e-14 -1.02694e-13 0)
(-7.11616e-14 -5.81314e-14 0)
(-3.35447e-15 -6.98476e-14 0)
(1.11714e-13 -5.16395e-14 0)
(2.07268e-13 -4.69497e-14 0)
(5.39485e-14 -1.38712e-13 0)
(-4.77466e-14 -1.32035e-13 0)
(8.89715e-14 -1.56377e-13 0)
(9.29652e-14 -2.18143e-13 0)
(8.49094e-14 -1.09211e-13 0)
(4.13739e-15 -1.1778e-13 0)
(-7.69195e-14 -5.54606e-14 0)
(-4.45416e-14 -7.61378e-14 0)
(-4.81468e-14 -1.18e-13 0)
(-6.45077e-14 -1.18576e-13 0)
(-3.14722e-14 -1.33333e-13 0)
(5.45761e-14 -1.56493e-13 0)
(-6.63757e-14 -1.83028e-13 0)
(-9.64687e-14 -1.36774e-13 0)
(-6.44379e-14 -1.46824e-13 0)
(-1.04415e-13 -4.79361e-14 0)
(1.01319e-14 -9.12906e-14 0)
(-1.49976e-14 -1.71007e-13 0)
(1.0957e-13 -1.84331e-13 0)
(1.5095e-13 -3.21355e-13 0)
(4.17409e-15 -2.58355e-13 0)
(-4.32455e-14 -1.85667e-13 0)
(-7.32194e-14 -1.31588e-13 0)
(6.24536e-14 -1.43517e-13 0)
(1.82536e-13 -1.30314e-13 0)
(1.07481e-13 -1.693e-13 0)
(1.07364e-13 -3.96626e-14 0)
(1.4917e-13 -7.34256e-14 0)
(4.01081e-14 -1.38486e-13 0)
(-5.85882e-14 -1.43757e-13 0)
(-9.96371e-14 -6.60677e-14 0)
(-1.93033e-13 -6.8732e-15 0)
(-1.40317e-13 4.29319e-14 0)
(-4.06013e-14 -1.99619e-14 0)
(5.60621e-14 -2.03096e-14 0)
(3.3397e-15 9.27381e-15 0)
(5.58746e-14 -4.34078e-14 0)
(8.2977e-14 -8.66568e-14 0)
(-3.61565e-14 -1.24963e-13 0)
(-1.57686e-13 -1.56661e-13 0)
(-8.86982e-14 -8.56791e-14 0)
(-4.61628e-15 -2.76753e-14 0)
(-2.93553e-14 -5.46134e-14 0)
(8.0853e-14 -1.32246e-13 0)
(1.42754e-13 -1.39589e-13 0)
(-3.02579e-14 -4.99016e-15 0)
(-1.52283e-13 -2.01552e-14 0)
(-1.03455e-13 1.31418e-14 0)
(-3.08002e-14 -1.11984e-14 0)
(1.01697e-13 3.35517e-14 0)
(1.38855e-13 -1.14277e-13 0)
(7.84749e-14 -1.8605e-13 0)
(1.14419e-13 -2.59839e-13 0)
(2.9482e-14 -2.26281e-13 0)
(5.47595e-14 -1.44787e-13 0)
(1.68501e-14 -1.65489e-13 0)
(-1.50801e-13 -1.34214e-13 0)
(-1.47942e-13 -1.51724e-13 0)
(-7.22743e-14 -1.1657e-13 0)
(9.83215e-14 -3.65916e-14 0)
(8.49666e-14 -1.81876e-14 0)
(-2.69088e-14 2.32203e-14 0)
(-1.16406e-13 8.61167e-14 0)
(-9.67731e-14 5.68137e-14 0)
(-9.93365e-14 1.06554e-13 0)
(-6.81213e-14 1.81148e-13 0)
(5.91178e-14 9.8602e-14 0)
(2.09053e-13 -1.69839e-14 0)
(2.23317e-13 -1.11372e-13 0)
(1.13177e-13 -1.71115e-13 0)
(1.20785e-13 -8.83209e-14 0)
(1.39317e-13 -5.92817e-14 0)
(-1.16349e-14 -1.52409e-14 0)
(-6.25254e-15 3.73079e-14 0)
(8.99409e-14 1.08485e-13 0)
(1.35874e-13 3.0956e-14 0)
(1.31445e-13 6.69508e-14 0)
(8.27228e-14 6.01632e-17 0)
(-1.37002e-13 -4.41662e-14 0)
(-1.21628e-13 -4.06858e-14 0)
(-8.41673e-14 -4.39594e-14 0)
(-1.23182e-13 -6.73561e-14 0)
(-1.1106e-13 -8.49345e-14 0)
(-8.35027e-14 -3.86704e-14 0)
(-7.47134e-14 -2.19696e-14 0)
(-6.71524e-14 -2.68773e-14 0)
(3.91343e-14 -3.78896e-15 0)
(9.18644e-14 -8.90365e-14 0)
(-1.13334e-13 -1.28139e-13 0)
(-2.57962e-13 -1.40657e-13 0)
(-1.65435e-13 -5.06671e-14 0)
(-7.04359e-14 -8.22861e-14 0)
(-7.0342e-14 -1.48128e-13 0)
(1.92414e-14 -2.17395e-13 0)
(5.1696e-14 -1.64628e-13 0)
(-9.57638e-14 -1.34891e-13 0)
(-1.30525e-13 -6.34482e-14 0)
(-3.5314e-14 -6.60745e-14 0)
(1.1995e-13 -6.74607e-14 0)
(1.97006e-13 -2.91028e-14 0)
(2.46108e-14 -4.484e-14 0)
(4.74829e-14 -3.42637e-14 0)
(1.80956e-13 -5.36925e-14 0)
(1.45713e-13 -6.85332e-14 0)
(1.45905e-13 -1.88652e-14 0)
(1.02227e-13 -2.37539e-14 0)
(-7.81562e-14 -6.12159e-14 0)
(-1.36829e-13 -1.16269e-13 0)
(-8.32067e-14 -5.58749e-14 0)
(4.04786e-14 -6.57509e-14 0)
(1.46976e-14 -6.31702e-14 0)
(5.65772e-14 -6.70174e-14 0)
(2.54593e-14 -6.49864e-14 0)
(-4.51292e-14 -8.11586e-14 0)
(-1.96571e-14 -5.46776e-14 0)
(-4.53004e-14 -1.9151e-14 0)
(2.53981e-13 -8.19412e-14 0)
(1.89919e-13 -1.2146e-13 0)
(1.52489e-13 -7.88123e-14 0)
(1.31355e-13 -1.40059e-13 0)
(7.14144e-14 -1.41797e-13 0)
(2.69825e-14 -1.02273e-13 0)
(6.66549e-14 -1.08533e-13 0)
(1.25977e-13 -1.1902e-13 0)
(-1.30689e-16 -1.42732e-13 0)
(-7.53307e-14 -1.33372e-13 0)
(-6.12562e-14 -4.594e-14 0)
(-1.21501e-13 -8.65918e-15 0)
(-1.78673e-13 2.12988e-14 0)
(-1.59181e-13 5.75018e-14 0)
(-3.40095e-14 7.56283e-14 0)
(2.17903e-14 8.60671e-15 0)
(5.62267e-15 3.90495e-14 0)
(2.82807e-14 3.83614e-14 0)
(1.29053e-13 -3.81451e-14 0)
(1.3754e-13 -1.45871e-13 0)
(2.42429e-14 -1.09213e-13 0)
(-8.56774e-14 -9.08408e-14 0)
(-1.6039e-13 -1.34499e-14 0)
(-7.02117e-14 -4.30719e-14 0)
(-8.7363e-15 -9.38818e-14 0)
(-5.04954e-14 -1.28785e-13 0)
(-4.37779e-14 -1.08529e-13 0)
(1.05239e-13 -3.83523e-14 0)
(1.79622e-13 -1.2528e-13 0)
(1.21311e-13 -1.46852e-13 0)
(7.03831e-14 -8.75671e-14 0)
(-5.53956e-14 -1.58234e-14 0)
(-1.07012e-13 6.6166e-14 0)
(-1.45439e-13 3.52534e-14 0)
(-9.21395e-14 1.378e-14 0)
(-6.66675e-14 -1.11853e-14 0)
(-3.09019e-14 6.9307e-15 0)
(-3.61117e-14 -3.78511e-14 0)
(-1.34966e-13 -1.00202e-14 0)
(-1.56123e-13 -5.5468e-14 0)
(-6.62834e-14 -8.01585e-15 0)
(1.42364e-14 -3.23959e-14 0)
(1.88817e-13 -8.69728e-14 0)
(1.75252e-13 -2.02606e-13 0)
(3.30136e-14 -1.6246e-13 0)
(-2.00743e-14 -1.65217e-13 0)
(-1.67294e-14 -8.92708e-14 0)
(3.25272e-14 -1.18491e-13 0)
(9.77074e-14 -8.27692e-14 0)
(1.13923e-13 -1.47098e-13 0)
(-2.55271e-14 -2.03339e-13 0)
(-7.33665e-14 -2.10682e-13 0)
(6.31808e-14 -1.95779e-13 0)
(1.69162e-13 -2.11124e-13 0)
(1.48965e-13 -1.42387e-13 0)
(6.44114e-14 -1.38151e-13 0)
(1.45069e-14 -4.47713e-14 0)
(-1.0593e-13 -4.34942e-14 0)
(-1.11039e-13 -1.1484e-13 0)
(-3.52039e-14 -1.75418e-13 0)
(-4.55165e-14 -1.8746e-13 0)
(-1.57e-14 -2.04777e-13 0)
(-8.20415e-15 -1.65245e-13 0)
(-7.50919e-14 -9.3107e-14 0)
(-7.01479e-14 -1.22022e-13 0)
(-4.20642e-14 -7.35468e-14 0)
(-2.26985e-14 -3.79224e-14 0)
(-4.34377e-14 -8.29653e-14 0)
(-1.46727e-14 -1.51455e-13 0)
(6.34315e-14 -2.24496e-13 0)
(4.68083e-14 -2.56922e-13 0)
(6.19943e-14 -2.28431e-13 0)
(2.61778e-14 -1.49247e-13 0)
(1.23485e-14 -9.80267e-14 0)
(6.57646e-14 -1.69589e-13 0)
(1.66795e-13 -2.16126e-13 0)
(1.9583e-13 -1.47275e-13 0)
(5.48826e-14 -1.62757e-13 0)
(-1.86413e-14 -2.1628e-13 0)
(2.31084e-14 -1.68553e-13 0)
(-3.27233e-15 -1.12108e-13 0)
(-9.9932e-14 -5.39522e-14 0)
(-1.47036e-13 -2.07563e-14 0)
(-7.00262e-14 -7.60465e-14 0)
(1.55174e-14 -8.23901e-14 0)
(-1.73181e-14 -1.34024e-13 0)
(1.93916e-14 -1.28571e-13 0)
(4.61384e-14 -1.57686e-13 0)
(-7.39234e-14 -1.16886e-13 0)
(-7.33311e-14 -1.8517e-13 0)
(3.33844e-14 -1.15404e-13 0)
(4.51113e-14 2.69211e-14 0)
(-9.53373e-14 5.35049e-14 0)
(-1.37572e-14 -4.3798e-14 0)
(1.71679e-13 -4.69675e-14 0)
(7.22169e-15 -3.79044e-14 0)
(-9.58973e-14 -8.12073e-14 0)
(-3.35765e-14 3.46369e-14 0)
(-4.58633e-14 -1.21769e-14 0)
(1.50885e-14 1.70884e-15 0)
(-8.26864e-15 -1.71947e-13 0)
(-5.23874e-14 -2.00979e-13 0)
(7.38989e-14 -2.60068e-13 0)
(1.18368e-13 -2.0798e-13 0)
(1.15109e-13 -2.27579e-13 0)
(8.1538e-14 -2.01735e-13 0)
(-4.26221e-14 -9.95762e-14 0)
(-1.46537e-13 -5.3333e-14 0)
(-6.32309e-14 -3.00273e-14 0)
(3.0534e-14 -7.6539e-14 0)
(-4.74299e-15 -1.20478e-13 0)
(-1.60958e-14 -9.33169e-14 0)
(3.98331e-15 -7.69354e-14 0)
(-2.48257e-14 -4.91017e-14 0)
(-5.31416e-14 -5.69722e-14 0)
(-3.71919e-14 4.14852e-14 0)
(-4.10846e-14 7.49656e-14 0)
(7.06347e-14 -6.9845e-14 0)
(9.91201e-14 -1.23392e-13 0)
(1.13071e-13 -1.39261e-13 0)
(1.94789e-13 -8.87106e-14 0)
(1.9499e-13 -1.02709e-13 0)
(9.63901e-14 -5.0796e-14 0)
(4.91122e-14 -6.97595e-14 0)
(4.6935e-14 -2.2762e-14 0)
(1.08615e-13 -7.66977e-14 0)
(9.45853e-14 -1.0833e-13 0)
(2.01949e-14 -1.17121e-13 0)
(-1.38616e-13 -1.39654e-13 0)
(-1.27176e-13 -1.72612e-13 0)
(-4.9258e-14 -1.3941e-13 0)
(-3.8372e-14 -1.05283e-13 0)
(-1.19795e-13 -8.42914e-14 0)
(-9.17331e-14 -7.97673e-14 0)
(-4.05117e-14 -9.67291e-14 0)
(-1.73988e-14 -4.0769e-14 0)
(-1.5698e-14 -7.43691e-14 0)
(-5.38459e-14 -1.94422e-13 0)
(-1.27335e-13 -1.63673e-13 0)
(-1.62203e-13 -6.58613e-14 0)
(-1.09115e-13 1.56123e-15 0)
(-9.36132e-14 7.986e-15 0)
(-1.37339e-13 -9.24789e-15 0)
(-2.70317e-14 -1.08232e-13 0)
(7.89696e-14 -1.36439e-13 0)
(-3.85196e-14 -1.6262e-13 0)
(-3.60498e-14 -6.70754e-14 0)
(-7.98102e-15 3.38565e-14 0)
(1.32489e-13 3.48684e-14 0)
(1.38855e-13 -8.56898e-15 0)
(-2.41558e-14 -3.61979e-14 0)
(2.47163e-15 -1.31783e-14 0)
(1.11318e-13 -4.80121e-15 0)
(1.75029e-13 -8.71922e-14 0)
(1.80147e-13 -6.28902e-14 0)
(1.12958e-13 -1.07189e-13 0)
(-1.2544e-14 -1.30669e-13 0)
(-7.47552e-14 -4.62877e-14 0)
(-1.15556e-13 3.9243e-15 0)
(-4.86197e-14 -2.91138e-14 0)
(2.92522e-14 -2.9542e-14 0)
(6.8456e-14 1.00087e-14 0)
(2.70821e-14 -5.96806e-14 0)
(4.04276e-16 -2.60938e-14 0)
(1.17549e-14 -8.74062e-14 0)
(-2.15764e-14 -5.26884e-14 0)
(3.10315e-13 -2.63982e-13 0)
(2.08288e-13 -2.51302e-13 0)
(1.45752e-13 -1.9982e-13 0)
(7.23442e-14 -2.4063e-13 0)
(1.57707e-13 -1.94821e-13 0)
(1.23958e-13 -1.33158e-13 0)
(5.62748e-14 -1.34255e-13 0)
(5.19962e-14 -1.89926e-13 0)
(-2.69381e-14 -2.30061e-13 0)
(-5.57955e-15 -1.80348e-13 0)