/*--------------------------------*- C++ -*----------------------------------*\
  =========                 |
  \\      /  F ield         | OpenFOAM: The Open Source CFD Toolbox
   \\    /   O peration     | Website:  https://openfoam.org
    \\  /    A nd           | Version:  13
     \\/     M anipulation  |
\*---------------------------------------------------------------------------*/
FoamFile
{
    format      ascii;
    class       volVectorField;
    location    "0.0001";
    object      U;
}
// * * * * * * * * * * * * * * * * * * * * * * * * * * * * * * * * * * * * * //

dimensions      [0 1 -1 0 0 0 0];

internalField   nonuniform List<vector> 
33334
(
(-9.58311e-15 -9.58855e-14 0)
(-1.88705e-13 -9.30303e-14 0)
(-1.3204e-13 -9.19082e-15 0)
(8.02907e-15 -1.73228e-14 0)
(1.69896e-13 4.96332e-14 0)
(2.08165e-13 -3.85751e-14 0)
(2.96207e-14 -4.91056e-14 0)
(-2.42968e-14 6.5526e-15 0)
(4.6339e-14 -7.60672e-14 0)
(-6.80264e-14 -9.00325e-14 0)
(-1.77071e-14 -1.20372e-13 0)
(7.8546e-14 -2.07509e-13 0)
(-1.18831e-13 -1.40674e-13 0)
(-1.35476e-13 4.17781e-14 0)
(-3.45223e-14 6.72961e-14 0)
(7.92873e-14 -7.55379e-16 0)
(1.98555e-13 -2.60619e-14 0)
(-4.71748e-14 -6.01544e-14 0)
(-3.06924e-14 -7.24436e-14 0)
(-2.10924e-15 -1.73438e-13 0)
(-8.71445e-14 -2.00441e-13 0)
(-7.09956e-14 -2.16115e-13 0)
(5.47869e-14 -1.35464e-13 0)
(1.14915e-13 -1.02841e-13 0)
(3.66288e-14 -3.60606e-14 0)
(2.27591e-15 -4.5941e-14 0)
(-1.22024e-13 -9.95296e-14 0)
(-1.27433e-13 4.94646e-14 0)
(-2.60453e-14 6.72514e-14 0)
(1.11058e-13 2.69685e-14 0)
(1.9663e-13 -4.22869e-14 0)
(3.07212e-14 -3.24013e-14 0)
(-1.00361e-13 -5.08963e-15 0)
(-1.25854e-13 -1.93772e-14 0)
(-1.14751e-13 -9.23334e-14 0)
(-3.90756e-14 -1.6533e-13 0)
(-2.5372e-14 -9.04404e-14 0)
(5.29647e-15 -1.01298e-13 0)
(-8.11968e-14 -1.51526e-13 0)
(-4.36081e-14 -1.53871e-13 0)
(3.62603e-14 -1.25758e-13 0)
(-1.17014e-14 -6.14472e-14 0)
(6.49152e-15 -1.07399e-13 0)
(-2.58404e-14 -1.68405e-13 0)
(-1.92912e-14 -1.28982e-13 0)
(-3.43127e-15 -8.36194e-14 0)
(-1.45149e-14 -1.28855e-13 0)
(2.68648e-14 -1.27705e-13 0)
(-4.25768e-15 -1.49094e-13 0)
(-1.67997e-14 -5.19872e-14 0)
(8.97606e-14 -1.18406e-13 0)
(1.67412e-14 -1.70851e-13 0)
(-4.05665e-14 -7.09928e-14 0)
(8.96052e-15 -2.48512e-14 0)
(-2.90417e-14 -1.16511e-13 0)
(1.18896e-14 -1.06509e-13 0)
(7.31939e-14 -1.59535e-13 0)
(1.89384e-14 -1.17442e-13 0)
(1.67904e-14 -1.48872e-13 0)
(-7.48624e-14 -1.53911e-13 0)
(-5.38844e-14 -1.76981e-13 0)
(-2.89801e-14 -1.43108e-13 0)
(7.69998e-15 -8.02214e-14 0)
(8.21406e-15 -1.28524e-13 0)
(8.24988e-15 -1.51335e-13 0)
(8.58857e-15 -7.4769e-14 0)
(-8.99065e-15 -5.41424e-14 0)
(5.34458e-14 -1.2759e-13 0)
(-1.17462e-14 -1.98155e-13 0)
(-5.06387e-14 -1.33528e-13 0)
(4.73731e-14 -6.41969e-14 0)
(4.33806e-14 -1.56954e-13 0)
(-1.5651e-14 -1.44015e-13 0)
(-3.6245e-14 -5.0491e-14 0)
(-3.11472e-14 -7.67822e-15 0)
(2.46732e-14 -1.14247e-13 0)
(-1.70158e-14 -1.88708e-13 0)
(-4.90981e-16 -1.15609e-13 0)
(1.99158e-14 -7.42271e-14 0)
(-7.39231e-14 -1.48905e-13 0)
(1.10238e-14 -1.17001e-13 0)
(9.44647e-14 -1.40582e-13 0)
(6.38441e-15 -8.95553e-14 0)
(2.99411e-14 -8.25844e-14 0)
(-1.85984e-15 -1.2341e-13 0)
(-4.43224e-14 -2.49243e-13 0)
(-6.01626e-14 -1.4221e-13 0)
(7.30263e-15 -7.23567e-14 0)
(-4.42093e-16 -1.30069e-13 0)
(4.35227e-14 -1.44866e-13 0)
(4.0386e-14 -1.68891e-13 0)
(-4.02549e-14 -8.06079e-14 0)
(2.87815e-14 -1.10705e-13 0)
(-9.80138e-15 -1.96851e-13 0)
(-5.05249e-14 -1.0801e-13 0)
(1.49223e-14 -2.47077e-14 0)
(4.79091e-14 1.71578e-14 0)
(3.27043e-14 2.571e-14 0)
(4.21026e-14 -1.03866e-13 0)
(-1.57766e-14 -1.52748e-13 0)
(-9.04417e-14 -1.34308e-13 0)
(1.97812e-14 -1.52276e-13 0)
(7.60932e-14 -2.1937e-13 0)
(-1.80348e-14 -2.38625e-13 0)
(-7.23141e-14 -1.45314e-13 0)
(8.82763e-15 -1.3495e-13 0)
(7.66232e-14 -1.61014e-13 0)
(1.35982e-14 -1.45429e-13 0)
(-1.67165e-14 -1.21142e-13 0)
(-2.67872e-14 -1.52066e-13 0)
(4.9538e-15 -1.93127e-13 0)
(2.93388e-14 -1.32846e-13 0)
(1.32761e-14 -1.59268e-13 0)
(-3.44351e-14 -1.15621e-13 0)
(-1.13533e-14 -1.29047e-13 0)
(-5.95314e-14 -1.32738e-13 0)
(-3.79593e-14 -2.75455e-14 0)
(4.77875e-14 -9.10647e-14 0)
(2.35853e-14 -2.02408e-13 0)
(4.43182e-14 -1.66054e-13 0)
(2.07437e-14 -1.80113e-13 0)
(9.58635e-14 -2.15097e-13 0)
(1.08881e-14 -2.63047e-13 0)
(-6.86301e-14 -1.64701e-13 0)
(-3.9774e-14 -1.56445e-13 0)
(-4.39099e-14 -1.14631e-13 0)
(6.58433e-15 -1.73436e-13 0)
(7.53632e-14 -1.97903e-13 0)
(-1.74376e-14 -2.29259e-13 0)
(-1.05626e-13 -1.27618e-13 0)
(-4.18788e-14 -1.17167e-13 0)
(4.33853e-14 -1.20812e-13 0)
(2.48978e-14 -1.36776e-13 0)
(2.20948e-14 -1.40894e-13 0)
(1.39343e-15 -1.1596e-13 0)
(3.56921e-14 -1.19326e-13 0)
(7.08967e-14 -7.31541e-14 0)
(-2.26961e-14 -9.89313e-14 0)
(-1.58639e-13 -1.05201e-13 0)
(-6.04456e-14 -5.00336e-14 0)
(3.44794e-14 -8.03739e-15 0)
(6.31216e-14 -6.59621e-14 0)
(7.53651e-14 -8.0315e-14 0)
(6.49697e-14 -1.90247e-13 0)
(1.48741e-13 -1.39756e-13 0)
(4.92788e-14 -8.94445e-14 0)
(-3.78058e-15 -1.314e-13 0)
(-6.7151e-14 -9.47821e-14 0)
(-1.1591e-13 -9.13362e-14 0)
(-1.6541e-14 -1.31978e-13 0)
(-7.57309e-14 -1.31995e-13 0)
(3.13341e-14 -1.41139e-13 0)
(7.28372e-14 -2.19577e-13 0)
(-5.5151e-14 -1.91327e-13 0)
(-1.04844e-13 -1.14303e-13 0)
(-1.04589e-14 -1.12976e-13 0)
(6.30501e-14 -9.90184e-14 0)
(2.90616e-15 -1.37494e-13 0)
(-6.9739e-15 -1.45624e-13 0)
(-1.56357e-14 -1.57155e-13 0)
(2.37876e-14 -1.72943e-13 0)
(4.35765e-14 -1.33242e-13 0)
(2.22148e-15 -1.80403e-13 0)
(-5.16132e-14 -1.36278e-13 0)
(-1.98502e-15 -1.59703e-13 0)
(-2.88882e-14 -1.50244e-13 0)
(-3.79913e-14 -5.2326e-14 0)
(-7.4402e-14 -1.25799e-13 0)
(-1.26582e-13 -8.7802e-14 0)
(-9.02142e-14 -2.02566e-14 0)
(5.01011e-14 -1.10654e-14 0)
(1.53939e-13 1.33221e-14 0)
(1.39832e-13 -2.58159e-14 0)
(1.00693e-13 -7.41674e-14 0)
(-2.86383e-14 -2.53177e-14 0)
(-6.13618e-14 -5.79117e-14 0)
(-8.54377e-14 -2.18988e-13 0)
(-9.13755e-14 -1.97387e-13 0)
(7.6072e-14 -2.44319e-13 0)
(5.03765e-14 -1.40591e-13 0)
(-3.57107e-14 -2.65319e-14 0)
(-7.51189e-14 2.43626e-15 0)
(1.58492e-14 -2.21574e-14 0)
(1.39722e-13 -9.1262e-14 0)
(-4.55805e-14 -2.06691e-13 0)
(-1.20458e-13 -1.38986e-13 0)
(-3.67608e-14 -1.25465e-13 0)
(-8.8023e-14 -9.03729e-14 0)
(-4.40498e-15 -1.22829e-13 0)
(9.8933e-14 -5.78433e-14 0)
(1.58025e-13 -5.36028e-14 0)
(5.64093e-14 -6.49297e-14 0)
(-4.61834e-14 -9.70174e-14 0)
(-2.80569e-14 -1.01352e-13 0)
(-2.92641e-16 -9.01355e-15 0)
(-9.87699e-14 3.1492e-14 0)
(3.87671e-14 -1.18667e-14 0)
(1.48617e-13 -5.17653e-14 0)
(7.36203e-14 -7.82251e-14 0)
(-6.47006e-14 -4.78273e-15 0)
(-1.80863e-13 9.58581e-15 0)
(-1.47551e-13 -2.42502e-14 0)
(-3.38491e-14 -4.28563e-14 0)
(-2.90433e-14 -6.18985e-15 0)
(-2.97592e-14 -5.27627e-14 0)
(-1.0915e-14 -5.33596e-14 0)
(-1.5068e-14 -9.93061e-16 0)
(-9.18676e-15 -2.39754e-14 0)
(-1.21849e-14 1.41991e-14 0)
(1.40561e-14 5.68092e-15 0)
(-2.85645e-14 -5.94318e-16 0)
(-3.60377e-14 -5.10135e-14 0)
(-1.5336e-14 -1.21065e-14 0)
(2.926e-14 -3.76123e-14 0)
(-1.56354e-15 3.81505e-14 0)
(-2.46148e-14 -6.74112e-14 0)
(4.09894e-15 8.34536e-15 0)
(4.25874e-14 -4.99135e-14 0)
(3.98716e-14 -9.43775e-14 0)
(3.41857e-14 1.06734e-14 0)
(-1.2739e-14 6.36561e-14 0)
(-2.44742e-14 -3.14346e-14 0)
(-2.7844e-14 2.57937e-14 0)
(-1.2032e-14 -8.29875e-14 0)
(-2.30931e-15 -9.02107e-14 0)
(2.61891e-14 -1.26301e-13 0)
(-2.54933e-15 -9.28234e-14 0)
(-4.61806e-14 -4.92135e-14 0)
(-2.24396e-14 -6.15899e-14 0)
(1.17575e-14 -1.97827e-14 0)
(1.61526e-14 -2.22483e-14 0)
(3.78985e-14 2.16918e-14 0)
(1.09118e-14 -2.74853e-14 0)
(-2.64016e-14 -1.94517e-14 0)
(-3.01321e-15 -7.54224e-14 0)
(-2.28017e-14 -5.44139e-14 0)
(-1.6696e-14 -5.90456e-14 0)
(2.53834e-14 -3.77095e-14 0)
(5.75103e-14 -5.98015e-14 0)
(2.71389e-14 6.58049e-15 0)
(-1.2984e-14 -2.91913e-14 0)
(-5.40177e-14 4.99001e-14 0)
(-2.204e-14 -5.64997e-15 0)
(1.52618e-14 -6.62529e-15 0)
(-1.54824e-14 -3.59476e-14 0)
(-1.89348e-14 1.4581e-14 0)
(-5.76182e-14 -2.0216e-14 0)
(1.57193e-15 5.41592e-14 0)
(5.0736e-14 -3.93234e-14 0)
(4.39172e-14 -1.57539e-14 0)
(1.11509e-14 -4.98765e-14 0)
(-5.44948e-14 -5.67071e-14 0)
(-6.24572e-14 -9.17727e-14 0)
(1.96886e-15 -9.97406e-14 0)
(4.73816e-14 -7.29658e-14 0)
(4.89323e-14 -4.27368e-14 0)
(1.22717e-14 3.81428e-14 0)
(4.6453e-15 -6.39128e-14 0)
(-1.24617e-14 5.51674e-15 0)
(1.98709e-14 3.90622e-14 0)
(-1.02066e-14 -1.05967e-14 0)
(-8.74849e-15 -6.26437e-15 0)
(7.4829e-14 1.86452e-14 0)
(1.23179e-13 5.41487e-14 0)
(-3.67456e-14 3.01817e-14 0)
(-9.29108e-14 -9.02181e-14 0)
(-1.54682e-14 -5.55234e-14 0)
(-6.67729e-15 -5.5072e-14 0)
(1.04604e-14 2.29598e-14 0)
(-1.52385e-14 -9.52434e-14 0)
(5.59577e-15 -6.7685e-14 0)
(3.85405e-15 -3.56196e-14 0)
(-2.58936e-14 1.98951e-14 0)
(-3.55455e-14 -9.6695e-14 0)
(1.11519e-14 -1.75373e-13 0)
(1.30588e-14 -1.70435e-13 0)
(2.37616e-14 -1.19049e-13 0)
(4.25495e-14 -2.285e-14 0)
(4.28885e-14 -6.08555e-15 0)
(1.33472e-14 -4.40527e-14 0)
(2.54228e-15 -8.30415e-15 0)
(-3.13279e-14 2.19383e-14 0)
(-3.97788e-14 -4.78767e-14 0)
(-2.02774e-14 4.22531e-14 0)
(2.49383e-15 3.55527e-15 0)
(1.81304e-14 -3.47272e-14 0)
(4.72173e-15 -3.559e-14 0)
(-5.29313e-15 -7.19618e-14 0)
(4.79388e-14 -1.26961e-13 0)
(1.78576e-14 -1.14106e-13 0)
(-4.11297e-14 -5.00426e-14 0)
(9.87776e-15 -5.08683e-14 0)
(4.77893e-16 2.23478e-16 0)
(-1.43544e-14 2.01312e-14 0)
(2.56925e-15 -8.85295e-14 0)
(8.44468e-15 -5.98819e-14 0)
(-1.13858e-14 -4.27015e-15 0)
(-2.16938e-14 6.78112e-14 0)
(-3.19307e-14 -3.38398e-14 0)
(-2.84988e-14 -5.56687e-14 0)
(3.30283e-14 -5.36057e-14 0)
(8.29239e-14 1.09945e-14 0)
(6.20819e-14 -3.03567e-14 0)
(6.72665e-14 -5.18266e-14 0)
(-4.62704e-14 -6.84037e-14 0)
(-8.48156e-14 -4.44097e-14 0)
(-1.38352e-14 6.04415e-15 0)
(-1.23271e-14 -3.23022e-14 0)
(3.10478e-14 -3.04309e-14 0)
(2.87695e-14 8.55833e-15 0)
(2.34017e-14 -3.23893e-14 0)
(1.25656e-13 -5.76177e-14 0)
(2.53921e-14 -1.71534e-13 0)
(6.73138e-15 -1.26253e-13 0)
(-1.19679e-14 -1.633e-13 0)
(-1.57573e-13 -5.43276e-14 0)
(-2.52027e-14 -6.18853e-14 0)
(6.0597e-16 -9.57415e-15 0)
(-4.06041e-15 2.33419e-14 0)
(2.19214e-14 -1.37942e-13 0)
(2.11845e-14 -7.38725e-14 0)
(-2.86994e-14 -3.41087e-16 0)
(7.76553e-15 5.33361e-14 0)
(-2.45319e-14 -5.7813e-14 0)
(-6.88025e-14 -6.04367e-14 0)
(-4.81563e-15 -5.04564e-14 0)
(4.55454e-14 -6.9875e-14 0)
(4.38406e-14 -3.2748e-14 0)
(5.38332e-15 -1.28518e-14 0)
(-3.5783e-15 -5.48305e-14 0)
(-2.20277e-14 -2.77045e-14 0)
(-1.48117e-14 -1.65542e-14 0)
(-4.66777e-15 -5.56564e-14 0)
(6.77507e-15 -6.22024e-15 0)
(-1.99911e-14 -5.79682e-14 0)
(-1.10734e-13 -2.02475e-14 0)
(-6.75228e-14 2.42644e-14 0)
(1.6762e-14 8.11916e-15 0)
(1.67669e-13 -5.8283e-14 0)
(1.4232e-13 7.08959e-15 0)
(2.4343e-14 -3.08717e-14 0)
(1.11961e-14 -7.41297e-14 0)
(-1.23618e-13 -4.11765e-14 0)
(-1.70837e-13 -9.96492e-14 0)
(-2.78447e-14 -4.72525e-14 0)
(1.22239e-13 -6.20911e-14 0)
(3.33014e-14 -8.96375e-14 0)
(-4.61381e-14 -4.74164e-14 0)
(-4.46994e-15 -4.42109e-14 0)
(5.90181e-14 2.46537e-14 0)
(-4.78627e-15 -4.84244e-14 0)
(-1.22802e-13 -1.38064e-13 0)
(1.77322e-14 -1.09219e-13 0)
(8.71705e-15 -3.96251e-14 0)
(-1.03204e-13 3.20904e-16 0)
(1.03642e-15 5.32661e-14 0)
(1.3123e-13 8.84648e-14 0)
(9.05514e-14 -6.45885e-15 0)
(1.58304e-14 -8.25583e-14 0)
(-2.54483e-14 -2.29652e-14 0)
(-7.0259e-14 3.4836e-14 0)
(-1.98455e-14 -5.72278e-14 0)
(-4.31477e-14 -2.15671e-15 0)
(4.1123e-14 -1.57252e-15 0)
(1.49253e-13 -1.70667e-14 0)
(5.57535e-14 -5.9283e-14 0)
(-1.28676e-14 -5.16735e-14 0)
(-1.23088e-13 -1.3824e-14 0)
(-1.40107e-13 6.13588e-14 0)
(8.43581e-15 8.06799e-14 0)
(-2.12738e-14 1.0635e-13 0)
(-7.87574e-14 6.87386e-14 0)
(-4.41102e-14 9.72999e-14 0)
(-1.35772e-14 1.00341e-13 0)
(3.58196e-14 6.52892e-14 0)
(3.63159e-14 9.68525e-14 0)
(-2.16435e-14 8.48685e-14 0)
(-1.01541e-13 8.55443e-14 0)
(-3.99677e-14 6.10309e-14 0)
(3.11095e-14 9.3407e-14 0)
(4.88037e-14 4.32917e-14 0)
(-7.06824e-15 1.86046e-14 0)
(-2.32809e-14 4.47338e-14 0)
(3.17682e-15 8.3476e-14 0)
(-1.40704e-14 9.71364e-14 0)
(7.64052e-14 1.03027e-13 0)
(1.30657e-13 6.44355e-14 0)
(-3.4227e-14 5.74107e-14 0)
(-7.27083e-14 1.51853e-14 0)
(-4.75701e-14 -1.15733e-14 0)
(-7.16547e-14 -2.59089e-15 0)
(-2.56936e-14 1.4486e-14 0)
(2.37374e-14 -1.24378e-14 0)
(5.20396e-15 2.07763e-14 0)
(-1.1068e-14 5.57837e-14 0)
(-1.06999e-14 2.97725e-14 0)
(4.55391e-14 6.95203e-14 0)
(7.70973e-14 1.40267e-13 0)
(1.97701e-14 1.25263e-13 0)
(-4.2005e-14 6.10756e-14 0)
(-6.49408e-14 5.31419e-14 0)
(-1.29065e-14 -1.24719e-15 0)
(5.00216e-15 3.84323e-14 0)
(-7.18278e-14 1.67887e-14 0)
(1.30392e-14 -3.78261e-15 0)
(1.48763e-13 1.51266e-14 0)
(2.26694e-14 7.50743e-14 0)
(-3.47878e-14 3.98738e-14 0)
(-3.68649e-14 9.98317e-14 0)
(4.00628e-15 9.89396e-14 0)
(-4.73065e-14 8.78796e-14 0)
(-3.19158e-15 6.97643e-14 0)
(1.02986e-14 3.75535e-14 0)
(1.11448e-14 1.93636e-14 0)
(-6.87148e-15 5.40128e-14 0)
(1.07613e-14 4.14462e-14 0)
(2.93594e-14 7.47818e-14 0)
(-2.27472e-14 3.91569e-14 0)
(-8.43357e-14 3.52576e-14 0)
(-9.44729e-14 3.43468e-14 0)
(-2.81675e-14 1.94931e-14 0)
(6.88471e-14 5.40613e-15 0)
(1.19514e-13 7.36863e-14 0)
(2.23381e-14 4.29792e-14 0)
(5.2415e-15 7.06175e-14 0)
(8.31609e-14 9.45172e-14 0)
(8.40137e-15 1.22816e-13 0)
(-7.45584e-14 1.04335e-13 0)
(-2.64357e-14 4.93462e-14 0)
(5.87654e-14 5.09721e-14 0)
(4.34366e-14 -2.18751e-14 0)
(-6.80298e-14 -7.98487e-14 0)
(-2.95108e-14 -2.21036e-14 0)
(2.72451e-14 2.39912e-14 0)
(1.53471e-14 6.37887e-14 0)
(-3.02805e-14 6.58623e-14 0)
(-5.23691e-14 7.40453e-14 0)
(5.46928e-14 5.26614e-14 0)
(4.90652e-14 9.83932e-14 0)
(-8.78308e-14 5.45808e-14 0)
(-7.58157e-14 6.04815e-14 0)
(-5.96464e-14 2.18173e-14 0)
(-1.26601e-14 -5.87246e-14 0)
(9.83245e-14 -2.87234e-14 0)
(1.73263e-13 3.63746e-14 0)
(3.60923e-14 8.27278e-14 0)
(-6.78026e-15 2.13575e-14 0)
(1.7171e-14 3.20568e-14 0)
(-9.34595e-14 1.76817e-14 0)
(-3.57198e-14 3.54287e-14 0)
(2.3494e-14 7.5766e-14 0)
(7.86621e-15 6.50341e-14 0)
(2.52291e-14 7.33188e-14 0)
(-3.55133e-14 1.75993e-15 0)
(-7.27024e-14 -2.00824e-15 0)
(6.84177e-18 4.59097e-17 0)
(6.9065e-14 -4.46226e-14 0)
(2.00072e-14 -2.68651e-15 0)
(5.07144e-14 3.13485e-14 0)
(2.85802e-14 7.29202e-14 0)
(-8.92791e-14 4.76081e-14 0)
(-5.12045e-14 6.55324e-14 0)
(9.03831e-14 -5.66109e-16 0)
(5.71833e-14 1.55758e-14 0)
(-6.7984e-14 2.3339e-14 0)
(-1.13268e-13 3.52164e-14 0)
(-3.82275e-14 7.37876e-14 0)
(1.01212e-13 6.87693e-14 0)
(5.03295e-14 1.05922e-13 0)
(-2.75995e-14 1.76563e-14 0)
(3.19958e-14 -3.55914e-14 0)
(5.84533e-16 -4.48443e-14 0)
(-4.58569e-14 2.57691e-14 0)
(-5.11498e-14 6.72199e-14 0)
(6.11998e-15 5.37076e-14 0)
(1.01497e-13 7.10906e-14 0)
(1.77763e-14 7.66525e-14 0)
(-7.40219e-15 6.67338e-14 0)
(1.66855e-14 -1.43134e-14 0)
(-3.26691e-14 -1.21134e-13 0)
(3.64291e-14 -6.30001e-14 0)
(2.31756e-14 -5.80129e-14 0)
(-4.86069e-14 -1.27127e-14 0)
(5.91313e-15 1.38641e-14 0)
(2.46788e-14 7.26209e-14 0)
(-1.13943e-13 4.42244e-14 0)
(-3.36208e-14 3.69264e-14 0)
(1.07334e-13 -1.90595e-14 0)
(5.46908e-14 1.23201e-14 0)
(-6.8979e-14 8.35605e-14 0)
(-8.10506e-14 2.14451e-14 0)
(-3.87497e-14 6.46856e-14 0)
(-2.3844e-14 6.72877e-14 0)
(1.32488e-14 1.15667e-13 0)
(1.23968e-13 2.93429e-14 0)
(2.24731e-14 6.59625e-14 0)
(-1.12608e-14 5.96891e-15 0)
(-3.29464e-14 4.09186e-14 0)
(-6.95669e-14 8.98785e-14 0)
(-8.27772e-15 1.19823e-13 0)
(3.98633e-14 9.78487e-14 0)
(1.87933e-14 -1.47814e-13 0)
(-7.85399e-14 -1.49091e-13 0)
(-8.71189e-14 -4.09173e-14 0)
(-1.04526e-14 -5.01877e-14 0)
(1.42726e-13 -5.63792e-15 0)
(1.38334e-13 -1.17224e-13 0)
(1.9312e-14 -7.30719e-14 0)
(-5.77013e-14 -5.17891e-14 0)
(-7.97143e-14 -1.24417e-13 0)
(-7.86582e-14 -4.03045e-14 0)
(-2.87596e-14 -4.79507e-15 0)
(4.63284e-14 3.9746e-14 0)
(5.48146e-14 -1.91172e-14 0)
(-2.01233e-14 -4.96723e-15 0)
(1.65103e-14 -4.37882e-14 0)
(2.94423e-14 -8.45656e-15 0)
(-8.51873e-14 -7.09667e-14 0)
(-1.0195e-13 -6.36559e-14 0)
(-4.49132e-16 -3.93622e-14 0)
(-2.78552e-14 -9.49313e-14 0)
(-6.80002e-15 -8.78172e-14 0)
(9.8532e-14 6.71675e-14 0)
(1.93146e-14 3.29353e-14 0)
(-2.66036e-14 -1.34973e-13 0)
(8.64394e-14 -1.43905e-13 0)
(5.53232e-14 -6.19811e-14 0)
(-6.69811e-14 -1.51319e-14 0)
(-2.66286e-14 4.01378e-16 0)
(-3.75465e-14 -4.9108e-14 0)
(2.58573e-14 -1.08188e-14 0)
(9.03141e-14 -7.93895e-14 0)
(2.24378e-14 -1.41068e-13 0)
(-3.79907e-14 -1.4316e-13 0)
(-4.04166e-14 -1.4602e-13 0)
(-5.97072e-14 -3.3324e-14 0)
(-1.535e-14 3.33333e-14 0)
(-5.15605e-14 -1.72314e-14 0)
(-1.5906e-14 3.04685e-14 0)
(1.65556e-14 9.34142e-14 0)
(-3.58746e-14 6.5651e-14 0)
(-3.3529e-15 9.30927e-14 0)
(1.36523e-14 4.55536e-14 0)
(1.54025e-15 9.87006e-15 0)
(-5.04419e-14 5.24598e-14 0)
(-2.40076e-14 8.17568e-14 0)
(-3.37752e-14 5.94489e-14 0)
(-2.04348e-14 8.7187e-14 0)
(6.23642e-15 2.60073e-14 0)
(3.21284e-14 1.05758e-13 0)
(5.67411e-14 7.62914e-14 0)
(3.9456e-14 6.31118e-14 0)
(-4.88019e-15 5.82568e-14 0)
(-1.49801e-15 -1.45145e-14 0)
(-4.36672e-14 -4.23948e-14 0)
(-5.15185e-14 6.80739e-14 0)
(-4.74533e-14 2.89419e-15 0)
(-2.38432e-14 4.48254e-14 0)
(2.07226e-14 6.06484e-14 0)
(2.12498e-14 8.3805e-14 0)
(3.17095e-14 6.7469e-14 0)
(-1.7238e-14 7.63847e-14 0)
(-3.55078e-14 4.46505e-14 0)
(7.99137e-14 5.14253e-14 0)
(6.96869e-14 9.25492e-14 0)
(3.32168e-14 3.15818e-14 0)
(-4.58904e-14 1.07402e-13 0)
(-1.66702e-13 7.31801e-14 0)
(-4.23432e-14 2.71739e-14 0)
(3.67014e-14 4.24004e-14 0)
(-1.34428e-14 2.48298e-14 0)
(8.63383e-15 4.28026e-14 0)
(1.07982e-13 5.85282e-14 0)
(5.00049e-14 -6.08106e-15 0)
(8.54021e-15 6.1295e-14 0)
(3.82033e-15 5.47749e-14 0)
(7.27196e-17 5.32797e-14 0)
(-2.85324e-14 4.93462e-14 0)
(-5.72345e-14 3.94094e-14 0)
(-5.17867e-14 -1.9896e-14 0)
(-4.00117e-14 8.82692e-15 0)
(3.76364e-14 -3.05694e-14 0)
(5.76115e-14 5.65838e-14 0)
(5.13861e-14 7.325e-15 0)
(-1.13119e-14 9.48164e-14 0)
(-5.21788e-14 4.31302e-14 0)
(-6.22001e-14 9.43216e-14 0)
(-1.70316e-14 8.97889e-14 0)
(9.98671e-14 5.87926e-14 0)
(4.69595e-14 7.96273e-14 0)
(-1.31232e-14 2.59527e-14 0)
(3.29543e-14 6.27949e-14 0)
(7.58758e-14 3.41173e-14 0)
(1.51488e-14 -3.28002e-14 0)
(-5.44253e-14 2.52001e-14 0)
(-5.54736e-14 -1.13866e-14 0)
(-6.83907e-15 2.47981e-14 0)
(-2.78955e-14 -7.40027e-14 0)
(-2.25393e-14 -4.36927e-14 0)
(2.83736e-14 2.90768e-14 0)
(6.56119e-14 2.49402e-14 0)
(1.29103e-14 1.97486e-14 0)
(-1.46552e-14 -2.29051e-14 0)
(-8.03351e-15 6.34368e-14 0)
(2.22861e-14 5.54533e-14 0)
(-1.67624e-14 3.42469e-15 0)
(-3.85107e-14 -4.2898e-14 0)
(-1.47769e-14 4.30715e-14 0)
(-1.38688e-13 6.75953e-14 0)
(-6.37909e-14 8.25127e-14 0)
(9.93688e-14 5.47747e-14 0)
(1.62803e-13 1.90484e-14 0)
(1.92279e-14 -3.10031e-14 0)
(-4.17067e-14 9.10147e-15 0)
(-3.37781e-14 -4.7163e-14 0)
(-5.0529e-14 -4.22689e-14 0)
(2.58932e-14 4.85152e-14 0)
(5.84264e-14 4.02249e-14 0)
(2.51455e-14 1.55208e-14 0)
(-4.68093e-14 2.00062e-14 0)
(-5.73936e-14 -1.1347e-14 0)
(-7.53921e-15 1.99872e-14 0)
(1.21861e-14 7.42651e-14 0)
(1.99008e-14 1.17499e-14 0)
(3.78345e-14 -3.83019e-14 0)
(8.15195e-14 1.53085e-15 0)
(3.48549e-14 -4.19364e-14 0)
(-1.51193e-14 -2.05481e-14 0)
(-6.6105e-14 3.809e-14 0)
(-5.13909e-14 4.66806e-15 0)
(1.65575e-14 -8.30146e-14 0)
(3.56403e-15 -8.02151e-14 0)
(1.75425e-14 3.46474e-14 0)
(1.1546e-14 8.47479e-14 0)
(4.01327e-14 7.31975e-14 0)
(-2.69358e-15 -3.15965e-14 0)
(-3.64551e-14 2.80281e-14 0)
(-5.2069e-15 -1.79504e-15 0)
(-5.56374e-15 -4.05528e-14 0)
(-8.46774e-15 -1.01814e-14 0)
(3.34565e-14 4.19912e-14 0)
(-7.31052e-15 1.07293e-13 0)
(1.41873e-14 3.81065e-14 0)
(2.67374e-14 -6.16674e-14 0)
(-4.11302e-14 -3.21246e-14 0)
(-4.89164e-14 -7.72479e-14 0)
(-1.59405e-14 -2.17303e-14 0)
(8.6238e-14 -6.2281e-14 0)
(3.18768e-15 -7.20909e-15 0)
(-5.08947e-14 -5.62053e-14 0)
(4.29447e-14 -7.75029e-15 0)
(1.69543e-15 -4.73854e-14 0)
(-3.92962e-14 -4.59583e-14 0)
(-7.09926e-14 5.56341e-14 0)
(-3.02754e-15 5.18798e-15 0)
(6.87674e-14 -6.59262e-14 0)
(8.25775e-15 -6.23954e-14 0)
(-2.58645e-14 2.27921e-14 0)
(1.10567e-14 4.80437e-14 0)
(4.5401e-14 3.73027e-14 0)
(-2.00767e-14 7.46382e-14 0)
(9.51826e-15 6.13794e-14 0)
(-7.13935e-15 -7.44939e-15 0)
(-4.64224e-14 3.19751e-14 0)
(-9.31961e-16 -2.31746e-14 0)
(4.84465e-14 3.35265e-14 0)
(2.7744e-15 8.43699e-14 0)
(-1.1227e-14 4.08422e-14 0)
(-4.09255e-14 -1.31929e-13 0)
(-3.84604e-15 -1.36957e-13 0)
(-9.49049e-15 -1.07528e-13 0)
(7.064e-14 -3.52908e-14 0)
(9.15315e-14 1.05605e-13 0)
(8.8324e-14 1.83256e-14 0)
(7.99435e-14 1.7495e-14 0)
(-5.90469e-14 2.1927e-14 0)
(-1.45494e-13 -8.20861e-15 0)
(-7.12494e-14 -9.04682e-14 0)
(6.50953e-14 -6.5346e-14 0)
(1.05707e-13 -4.52189e-15 0)
(-5.59575e-15 -5.58783e-15 0)
(-1.16635e-13 -7.43477e-14 0)
(-4.44237e-15 -8.03057e-14 0)
(3.88144e-14 -6.16911e-14 0)
(-6.9957e-14 -3.68161e-14 0)
(-6.74554e-14 -4.58703e-14 0)
(1.96464e-14 -7.36057e-14 0)
(-4.88603e-14 -5.80018e-14 0)
(2.50689e-14 -1.07338e-13 0)
(1.43964e-13 -8.27122e-14 0)
(-4.22154e-14 -1.03042e-13 0)
(-8.07045e-14 -1.39072e-14 0)
(2.51217e-14 -2.23209e-14 0)
(1.07435e-13 -6.35504e-14 0)
(-3.60288e-15 -1.09918e-13 0)
(-7.51307e-14 -9.4388e-14 0)
(-2.90235e-14 -1.03903e-13 0)
(1.77975e-14 6.57801e-15 0)
(2.02037e-14 -1.66078e-14 0)
(4.95894e-15 -3.09777e-14 0)
(-2.84513e-14 -3.23903e-14 0)
(-6.86424e-15 -5.08478e-14 0)
(3.49348e-14 -9.53013e-14 0)
(5.08675e-16 -6.13952e-14 0)
(-4.92778e-14 -9.04065e-14 0)
(4.18557e-14 -7.62902e-15 0)
(2.66658e-14 -3.18317e-14 0)
(-5.87706e-15 -1.89896e-14 0)
(2.6521e-14 -1.51248e-15 0)
(-3.45659e-14 -3.4416e-14 0)
(-5.8329e-15 -7.83261e-14 0)
(7.17149e-15 -5.16352e-14 0)
(-5.80218e-14 -2.96233e-14 0)
(-2.00262e-15 -9.06562e-15 0)
(2.00981e-14 1.63804e-14 0)
(1.102e-14 6.38907e-14 0)
(3.49298e-14 3.47052e-14 0)
(-2.41466e-14 5.044e-15 0)
(1.84126e-15 -6.51828e-14 0)
(9.53898e-15 -4.32527e-14 0)
(-4.7614e-14 -1.03587e-13 0)
(7.26203e-15 -1.0412e-13 0)
(3.04368e-14 9.76909e-15 0)
(-5.53918e-14 4.72447e-14 0)
(-2.97651e-14 7.79509e-15 0)
(3.51312e-14 2.06541e-14 0)
(1.48788e-14 -7.65235e-17 0)
(1.07806e-15 -1.32853e-14 0)
(-3.42295e-14 -7.09682e-15 0)
(-2.05016e-14 1.52497e-14 0)
(8.12686e-14 1.04629e-14 0)
(3.84721e-15 -4.76514e-14 0)
(1.74384e-14 -8.37591e-14 0)
(3.0948e-14 -4.85975e-14 0)
(-9.74869e-14 9.47915e-16 0)
(-2.53225e-14 2.83199e-14 0)
(-4.80082e-15 3.43857e-14 0)
(-3.77545e-14 4.07612e-15 0)
(2.3545e-14 3.73461e-14 0)
(3.25636e-14 -1.38349e-14 0)
(1.93267e-14 -9.82719e-14 0)
(4.6353e-14 -5.07056e-14 0)
(-2.534e-14 -4.66119e-14 0)
(3.56014e-15 -8.22778e-14 0)
(-1.33757e-14 -5.53101e-14 0)
(-7.57769e-14 -6.84235e-14 0)
(-9.53519e-15 -7.88761e-14 0)
(-1.56433e-14 2.0887e-15 0)
(-1.66333e-15 -4.9096e-14 0)
(3.3274e-14 2.91129e-15 0)
(4.04632e-14 -1.0553e-13 0)
(3.72782e-14 -4.0414e-14 0)
(-4.11875e-14 -4.43796e-14 0)
(-1.25041e-14 1.74563e-14 0)
(-5.60593e-14 3.4504e-14 0)
(2.82209e-14 9.61011e-15 0)
(3.31476e-14 -5.66467e-14 0)
(-4.16596e-15 -6.01928e-15 0)
(3.53901e-14 -3.92949e-14 0)
(-1.93274e-14 -3.61334e-14 0)
(1.54622e-15 -1.36361e-13 0)
(-2.2577e-14 -7.83139e-14 0)
(5.72135e-15 -4.77809e-14 0)
(-2.97121e-15 -2.05726e-14 0)
(-3.98822e-14 -5.08713e-14 0)
(-6.35048e-15 -6.27705e-14 0)
(4.47103e-14 -3.42871e-15 0)
(1.81136e-14 -2.99227e-14 0)
(-3.54066e-14 -7.89472e-14 0)
(3.82455e-14 -4.89265e-14 0)
(2.00324e-14 -7.97573e-14 0)
(-1.87065e-14 -3.17964e-14 0)
(-5.76901e-14 -1.12815e-13 0)
(-1.41959e-14 -9.69351e-14 0)
(3.56018e-14 -1.37065e-13 0)
(-2.29241e-14 -5.33456e-14 0)
(-2.06406e-14 2.09839e-14 0)
(3.48841e-14 2.18683e-14 0)
(5.72386e-14 -3.0119e-14 0)
(1.62194e-14 -8.72682e-14 0)
(-1.28063e-14 -4.66592e-14 0)
(-4.17737e-14 -9.10995e-14 0)
(1.97638e-14 -5.36336e-14 0)
(4.62114e-14 9.65397e-15 0)
(-9.91176e-15 -1.06482e-14 0)
(1.45222e-14 -4.33797e-14 0)
(3.61278e-16 -1.62104e-14 0)
(-5.38975e-14 1.7107e-14 0)
(-4.71015e-15 4.99962e-14 0)
(3.51254e-14 3.68353e-14 0)
(-2.2399e-15 -4.25426e-15 0)
(2.56506e-14 -1.23535e-14 0)
(1.81398e-14 -7.43975e-15 0)
(-1.6042e-14 -1.00944e-13 0)
(2.36325e-14 -8.30559e-14 0)
(-1.15763e-14 -9.81539e-14 0)
(-5.77477e-14 -6.38098e-14 0)
(-3.13635e-14 -7.82519e-14 0)
(3.66714e-14 -7.37703e-14 0)
(6.93867e-14 -2.74368e-14 0)
(1.89561e-14 -3.40254e-14 0)
(-8.42905e-15 -9.0684e-14 0)
(5.1875e-14 -1.36887e-13 0)
(6.92319e-16 -1.85397e-14 0)
(-8.9137e-15 5.86108e-14 0)
(-3.3435e-14 7.65701e-15 0)
(-3.45052e-14 -6.52954e-14 0)
(6.75008e-14 -8.69602e-14 0)
(3.51397e-14 -5.3936e-14 0)
(-6.89374e-14 -4.37606e-14 0)
(-4.77046e-14 -1.27729e-13 0)
(-5.88727e-16 -1.35422e-13 0)
(3.0326e-14 -5.60322e-14 0)
(-4.87384e-15 -4.90717e-15 0)
(2.47284e-14 -3.07347e-14 0)
(-1.68998e-15 -7.33845e-14 0)
(-3.86591e-14 -6.74611e-14 0)
(3.61356e-15 -9.79335e-14 0)
(-1.2566e-14 -1.27208e-13 0)
(2.86657e-14 -5.19206e-14 0)
(2.14089e-14 -4.46691e-14 0)
(-1.83597e-14 8.16108e-17 0)
(-3.00402e-14 -6.97464e-14 0)
(2.0622e-14 -1.3577e-13 0)
(4.81063e-14 -5.53991e-14 0)
(3.51646e-14 -1.10447e-14 0)
(5.41347e-16 -6.34696e-14 0)
(9.16149e-15 -1.28205e-13 0)
(4.19168e-15 -2.79008e-14 0)
(3.06898e-14 -8.18291e-14 0)
(-1.46155e-14 2.05427e-14 0)
(-5.35226e-14 -6.03485e-14 0)
(5.17801e-14 -1.26546e-13 0)
(3.80201e-14 -7.76784e-14 0)
(-7.22457e-14 -6.28406e-14 0)
(-9.06228e-14 3.47571e-14 0)
(-4.59502e-14 3.73049e-14 0)
(2.50517e-14 -2.17337e-14 0)
(1.55737e-13 4.35745e-15 0)
(1.87701e-13 4.30917e-15 0)
(1.19526e-13 1.01803e-13 0)
(2.68914e-14 9.33456e-14 0)
(-1.21367e-13 6.21456e-14 0)
(-2.18195e-13 1.00633e-13 0)
(-1.33728e-13 2.79916e-14 0)
(3.2792e-14 1.75944e-14 0)
(1.2861e-13 1.81282e-14 0)
(-2.26356e-14 -4.15592e-14 0)
(-7.59541e-14 -4.0347e-15 0)
(1.88029e-14 4.39708e-14 0)
(8.05067e-14 -2.38593e-14 0)
(-2.92556e-14 2.08743e-14 0)
(-1.22769e-13 7.73277e-14 0)
(-3.95881e-14 3.41928e-14 0)
(-2.43096e-14 3.45542e-14 0)
(-5.05935e-14 2.51342e-14 0)
(7.08624e-14 -9.49231e-14 0)
(9.71873e-14 -2.22835e-14 0)
(2.6376e-14 2.89599e-14 0)
(5.32151e-14 8.20716e-14 0)
(-4.34614e-15 -3.16393e-16 0)
(-7.55636e-14 -4.16433e-14 0)
(-3.84309e-14 4.40113e-15 0)
(4.6483e-14 -1.5571e-14 0)
(1.34547e-13 4.50258e-14 0)
(4.88747e-14 4.81887e-14 0)
(-2.14836e-14 9.838e-14 0)
(-3.78802e-14 4.53047e-14 0)
(-1.13029e-13 5.76999e-14 0)
(-4.297e-14 -2.59431e-14 0)
(-2.71403e-14 -4.62478e-14 0)
(5.54806e-15 -3.95657e-14 0)
(4.0312e-14 3.60729e-15 0)
(1.82864e-14 -6.73664e-14 0)
(-3.33692e-14 -2.05276e-14 0)
(-2.9142e-14 -5.76841e-14 0)
(1.27878e-15 -6.01709e-14 0)
(-2.24007e-14 -5.50608e-14 0)
(1.10516e-14 -8.09758e-14 0)
(-1.89182e-14 -7.73403e-14 0)
(1.17607e-14 -6.03574e-14 0)
(5.49325e-15 -6.82017e-14 0)
(1.44263e-14 5.84164e-15 0)
(2.62466e-14 -2.82248e-14 0)
(9.36041e-15 3.16804e-15 0)
(9.35157e-15 -6.2998e-15 0)
(-3.0477e-14 -2.94594e-14 0)
(-7.52247e-14 -5.89874e-14 0)
(-8.72662e-15 -3.78624e-14 0)
(6.87623e-14 -1.17999e-13 0)
(-3.76381e-14 -4.80455e-14 0)
(-5.52439e-15 -2.59951e-14 0)
(6.40706e-15 2.5423e-14 0)
(-3.86815e-14 -8.80138e-14 0)
(3.58261e-15 -9.11565e-14 0)
(-1.61115e-15 -8.58696e-14 0)
(1.85639e-14 -3.40823e-14 0)
(5.61667e-14 4.64484e-15 0)
(-1.60468e-14 -1.08372e-13 0)
(-2.01697e-14 -4.6165e-14 0)
(2.84373e-14 -1.16742e-13 0)
(-2.12182e-14 -8.62758e-14 0)
(-1.41947e-14 -2.86753e-14 0)
(8.33735e-15 -2.73035e-14 0)
(-9.18531e-15 -2.61639e-14 0)
(2.34187e-14 -2.58183e-14 0)
(-4.73858e-14 -7.19769e-14 0)
(1.14455e-14 -3.59624e-14 0)
(4.06391e-14 -1.08705e-13 0)
(1.50919e-14 -5.752e-14 0)
(1.25846e-14 -6.87479e-14 0)
(-1.14129e-14 -5.38293e-14 0)
(-8.21598e-14 -2.2129e-14 0)
(-1.96136e-14 1.26406e-14 0)
(4.92558e-15 -4.23858e-14 0)
(4.01552e-14 -1.09844e-14 0)
(-1.07165e-14 -7.0103e-14 0)
(-1.98842e-14 -9.54084e-14 0)
(3.64568e-14 -1.624e-13 0)
(1.25001e-14 -1.05037e-13 0)
(3.06083e-14 -7.0189e-14 0)
(-4.71542e-14 -4.49202e-14 0)
(-3.5543e-14 -6.50184e-14 0)
(5.47002e-14 -1.00478e-13 0)
(-2.73213e-15 -7.65273e-14 0)
(2.30018e-14 -1.06505e-13 0)
(-8.03741e-15 -5.15327e-14 0)
(-3.86199e-14 -7.20267e-14 0)
(4.03391e-15 -5.68888e-14 0)
(6.56386e-15 -3.96335e-14 0)
(2.82024e-14 -2.09662e-14 0)
(-3.24515e-14 -5.28146e-14 0)
(-3.22437e-15 -2.13504e-14 0)
(3.50031e-14 -6.96081e-14 0)
(7.5158e-15 -6.39374e-14 0)
(1.39241e-14 -5.35617e-14 0)
(-1.06933e-14 -1.82394e-14 0)
(-1.20935e-14 -5.64195e-14 0)
(-8.56543e-15 -4.83229e-14 0)
(-9.60631e-14 -4.19015e-14 0)
(-2.74635e-14 1.63582e-15 0)
(3.35344e-14 -3.88919e-14 0)
(1.16104e-14 -2.74686e-14 0)
(2.36379e-14 -5.04026e-14 0)
(4.54148e-14 -5.97659e-14 0)
(5.38001e-14 -4.8209e-14 0)
(1.73415e-14 -5.4232e-16 0)
(-1.71875e-15 -3.67689e-14 0)
(-5.59981e-14 -1.95858e-14 0)
(-1.90771e-15 4.98816e-15 0)
(7.32584e-14 4.08304e-15 0)
(-1.60507e-14 -3.19206e-14 0)
(1.66428e-14 2.58517e-15 0)
(-1.59073e-14 1.25478e-15 0)
(1.26923e-15 -2.42962e-14 0)
(2.47374e-14 -8.848e-15 0)
(-2.93473e-14 -3.16149e-14 0)
(-1.76639e-14 -5.48569e-14 0)
(1.73576e-14 -5.45607e-14 0)
(-2.41712e-16 -3.5721e-14 0)
(-7.36863e-15 -4.88467e-14 0)
(-1.30757e-14 -4.04991e-14 0)
(-6.55717e-14 -1.15582e-13 0)
(-1.29058e-14 -7.30102e-14 0)
(1.36676e-14 -2.60065e-15 0)
(3.62702e-14 -4.37582e-15 0)
(6.6539e-14 -8.30057e-14 0)
(-3.64233e-14 -1.03063e-13 0)
(-4.18854e-14 -1.62225e-13 0)
(4.67028e-14 -9.30997e-14 0)
(1.26657e-13 -7.96338e-14 0)
(5.06045e-15 -2.55464e-14 0)
(-1.03061e-13 -4.28322e-14 0)
(-6.83233e-14 -3.4515e-14 0)
(2.89894e-14 -7.76631e-14 0)
(7.31092e-14 -1.61357e-13 0)
(-2.00735e-14 -7.75779e-14 0)
(-9.31389e-14 -5.92192e-14 0)
(-9.61871e-15 -7.22331e-14 0)
(8.02072e-14 -5.11475e-14 0)
(3.5615e-14 -1.22389e-14 0)
(1.76827e-14 3.98391e-14 0)
(-3.70838e-15 1.0548e-14 0)
(-7.71764e-14 -3.50781e-14 0)
(-4.32123e-14 -2.69107e-14 0)
(3.76145e-14 -7.84182e-14 0)
(2.10289e-14 -5.9827e-14 0)
(2.36812e-14 -7.62258e-14 0)
(3.3722e-15 -2.98347e-14 0)
(-4.38195e-14 -6.33856e-14 0)
(1.33372e-14 -2.68966e-14 0)
(6.85541e-14 -6.80364e-14 0)
(-1.75932e-14 -6.3949e-14 0)
(-3.39034e-14 -5.15087e-14 0)
(5.27481e-14 -7.4201e-14 0)
(1.76659e-14 -8.48231e-14 0)
(5.18021e-14 -7.3834e-14 0)
(3.28377e-15 -3.37224e-14 0)
(-8.18122e-14 -5.33373e-14 0)
(1.30439e-14 -5.53287e-14 0)
(5.12451e-14 -1.53312e-13 0)
(-5.57861e-15 -8.84506e-14 0)
(3.03594e-14 1.77981e-13 0)
(-8.27311e-14 1.40425e-13 0)
(-4.8185e-14 2.3871e-14 0)
(9.74364e-14 2.63727e-14 0)
(1.93877e-13 -1.07024e-13 0)
(1.48103e-13 -3.0173e-14 0)
(5.20125e-14 -1.82582e-15 0)
(-8.33036e-14 1.19236e-14 0)
(-1.5265e-13 7.4667e-14 0)
(-9.63883e-14 1.40155e-13 0)