/*--------------------------------*- C++ -*----------------------------------*\
  =========                 |
  \\      /  F ield         | OpenFOAM: The Open Source CFD Toolbox
   \\    /   O peration     | Website:  https://openfoam.org
    \\  /    A nd           | Version:  13
     \\/     M anipulation  |
\*---------------------------------------------------------------------------*/
FoamFile
{
    format      ascii;
    class       volVectorField;
    location    "0.0002";
    object      U;
}
// * * * * * * * * * * * * * * * * * * * * * * * * * * * * * * * * * * * * * //

dimensions      [0 1 -1 0 0 0 0];

internalField   nonuniform List<vector> 
33333
(
(-6.765e-14 1.06244e-13 0)
(-6.5045e-14 1.66236e-13 0)
(-7.52959e-14 1.37063e-13 0)
(-4.86204e-14 4.00968e-14 0)
(9.88678e-14 2.05712e-14 0)
(1.22797e-13 -1.00149e-13 0)
(3.69781e-14 -4.67098e-14 0)
(-5.04986e-14 -7.39676e-14 0)
(-8.19401e-14 -4.59195e-15 0)
(-1.24153e-14 -2.0276e-14 0)
(-4.47285e-14 4.04201e-15 0)
(-6.89764e-14 -4.49238e-14 0)
(6.03479e-14 -6.64324e-14 0)
(1.4787e-13 -1.05083e-13 0)
(2.33512e-14 -7.19297e-14 0)
(-7.15046e-14 -1.14841e-13 0)
(-4.23953e-14 -6.94357e-15 0)
(4.46608e-14 2.36981e-14 0)
(-1.40032e-14 -4.35137e-15 0)
(-5.68084e-14 -2.17415e-14 0)
(-8.36127e-14 -2.8167e-14 0)
(-2.61932e-14 4.46099e-15 0)
(2.827e-14 -2.2271e-14 0)
(4.79828e-14 6.41568e-14 0)
(5.82659e-14 8.79771e-14 0)
(-1.7303e-15 1.12738e-13 0)
(-3.54146e-14 9.88348e-14 0)
(-8.71509e-14 4.57189e-14 0)
(-8.50623e-14 -6.3822e-15 0)
(1.42412e-14 2.35457e-14 0)
(1.58821e-13 -2.88149e-14 0)
(1.74331e-13 -3.00472e-14 0)
(8.77069e-14 -1.03641e-13 0)
(-9.34076e-14 -1.06128e-13 0)
(-9.21593e-14 -9.69449e-15 0)
(-6.30058e-14 3.08159e-14 0)
(-4.02825e-14 9.63661e-15 0)
(8.33797e-14 -1.74587e-14 0)
(1.53448e-13 -1.44988e-13 0)
(-3.31181e-14 -1.10426e-13 0)
(-1.39572e-13 -5.81938e-15 0)
(-3.33719e-14 5.2555e-14 0)
(1.27264e-14 8.33781e-15 0)
(-5.19505e-14 -4.96581e-14 0)
(-5.52241e-14 -1.30658e-13 0)
(-6.48978e-14 -1.35959e-13 0)
(3.09504e-14 -1.49427e-14 0)
(7.96935e-14 -2.48069e-14 0)
(3.36772e-14 4.53232e-14 0)
(6.17211e-14 3.82397e-14 0)
(1.2928e-14 4.54977e-14 0)
(1.76895e-14 8.86915e-14 0)
(3.39089e-15 9.81592e-14 0)
(-8.22053e-15 -1.74983e-15 0)
(7.28355e-14 -3.88044e-14 0)
(1.15408e-13 -6.74355e-14 0)
(7.99482e-14 -5.75873e-14 0)
(2.18117e-14 -1.40031e-13 0)
(-1.31614e-13 -1.07159e-13 0)
(-1.35562e-13 3.2799e-14 0)
(1.51581e-14 1.02459e-13 0)
(7.57647e-16 1.09645e-13 0)
(2.77297e-14 3.83371e-14 0)
(1.18622e-13 -5.86918e-14 0)
(-4.52776e-15 -7.43577e-14 0)
(-1.29692e-13 3.3882e-14 0)
(-4.54724e-14 1.10949e-13 0)
(1.57932e-14 7.14403e-14 0)
(-2.50243e-14 5.83301e-14 0)
(-1.14409e-14 5.86695e-14 0)
(-2.98096e-14 3.58914e-14 0)
(4.59391e-14 2.96755e-14 0)
(9.43493e-15 1.06011e-15 0)
(-1.99112e-14 5.84383e-14 0)
(1.46243e-14 4.16629e-14 0)
(-3.34217e-14 2.17263e-15 0)
(-5.24471e-14 8.35688e-15 0)
(-2.10805e-14 2.15774e-14 0)
(-3.7559e-14 1.91412e-14 0)
(5.76958e-14 -4.17985e-15 0)
(1.5664e-13 -6.46079e-14 0)
(1.03516e-13 -3.24606e-14 0)
(2.84225e-14 -1.06399e-13 0)
(-1.4505e-13 -1.18091e-13 0)
(-1.06521e-13 -4.70792e-14 0)
(-6.63656e-14 9.63963e-15 0)
(-2.3255e-14 -2.98283e-14 0)
(1.58516e-13 -3.89337e-14 0)
(1.68574e-13 -1.25641e-13 0)
(-5.8906e-14 -1.07071e-13 0)
(-1.22423e-13 1.74826e-15 0)
(-5.49425e-14 3.9855e-14 0)
(4.66581e-15 2.78013e-14 0)
(-5.08875e-14 -2.86818e-14 0)
(-2.87977e-14 -9.40182e-14 0)
(-3.81406e-14 -9.77311e-14 0)
(1.62204e-14 2.80956e-14 0)
(3.30242e-14 5.29123e-14 0)
(2.2017e-14 8.40579e-14 0)
(4.00967e-14 7.88692e-14 0)
(-3.28321e-14 5.2701e-14 0)
(-8.02047e-14 7.53481e-14 0)
(-6.24402e-14 9.3872e-14 0)
(-5.69685e-15 2.46498e-14 0)
(9.35026e-14 -2.67102e-14 0)
(1.45806e-13 -1.12853e-13 0)
(6.73525e-14 -6.06108e-14 0)
(-9.67903e-14 -7.10297e-14 0)
(-7.63487e-14 4.61173e-14 0)
(4.40729e-14 5.09584e-14 0)
(-7.91001e-15 6.91916e-14 0)
(3.78101e-14 7.47478e-14 0)
(1.59549e-13 5.18563e-14 0)
(1.09866e-13 -5.26764e-14 0)
(-9.75193e-14 -6.62601e-14 0)
(-1.68684e-13 3.1389e-14 0)
(-3.45992e-14 7.97199e-14 0)
(4.60112e-14 5.87357e-14 0)
(-5.42442e-14 -2.19161e-14 0)
(-1.73935e-13 -2.23087e-14 0)
(-1.28655e-13 4.07381e-14 0)
(5.02804e-14 3.0772e-14 0)
(6.19844e-14 -3.57371e-14 0)
(5.87822e-14 4.99357e-14 0)
(9.03296e-14 1.04495e-13 0)
(-6.93977e-17 1.23358e-13 0)
(3.21084e-16 1.42396e-13 0)
(-5.69963e-14 1.14677e-13 0)
(-8.4369e-14 2.44057e-14 0)
(7.10507e-14 1.65207e-14 0)
(1.41502e-13 -9.55816e-14 0)
(1.14565e-13 -5.38993e-14 0)
(5.78661e-14 -1.03155e-13 0)
(-1.16291e-13 -8.31968e-14 0)
(-1.68862e-13 1.15442e-14 0)
(-1.58639e-13 5.2768e-15 0)
(-4.61007e-14 -3.20408e-14 0)
(1.40626e-13 -5.64894e-14 0)
(2.29888e-13 -1.50147e-13 0)
(7.71148e-14 -6.67365e-14 0)
(-5.65493e-14 2.14373e-14 0)
(-1.08182e-14 8.43376e-14 0)
(1.95719e-14 5.80888e-14 0)
(-2.38659e-14 7.11012e-14 0)
(-8.76072e-14 6.89866e-14 0)
(-9.58265e-14 5.06406e-15 0)
(-1.77631e-14 -1.89548e-14 0)
(3.55594e-14 -4.79433e-14 0)
(1.34736e-14 2.49072e-14 0)
(4.43442e-15 3.38885e-14 0)
(-4.28563e-14 1.40179e-14 0)
(-5.76538e-14 3.44939e-14 0)
(-1.6367e-14 7.81475e-14 0)
(-1.95674e-14 9.70039e-14 0)
(6.84347e-14 7.78703e-15 0)
(1.3886e-13 -1.31513e-13 0)
(1.1156e-13 -9.08824e-14 0)
(5.78393e-14 -1.23839e-13 0)
(-1.86365e-14 -1.1264e-13 0)
(-7.99292e-14 -4.60021e-14 0)
(-1.40163e-13 1.43441e-14 0)
(-1.82178e-13 2.93855e-15 0)
(-6.01575e-14 2.44726e-14 0)
(1.88496e-13 6.96036e-14 0)
(2.62114e-13 -5.70565e-14 0)
(1.91268e-13 -9.59341e-14 0)
(2.16192e-13 -8.18866e-14 0)
(-6.34498e-15 3.07309e-14 0)
(-3.25037e-14 8.48699e-14 0)
(-1.27399e-13 7.15037e-14 0)
(-9.3111e-14 8.67273e-14 0)
(1.10087e-14 -1.50015e-14 0)
(1.02914e-13 -1.47376e-13 0)
(5.01434e-14 -1.35944e-13 0)
(-9.80616e-15 -2.62049e-13 0)
(-3.17954e-14 -1.63889e-13 0)
(-2.70631e-14 -1.60055e-13 0)
(-7.31637e-14 -1.10139e-13 0)
(-8.08401e-14 -1.36693e-13 0)
(5.53312e-14 -1.5531e-13 0)
(1.35278e-13 -1.59749e-13 0)
(2.32448e-15 -1.73183e-13 0)
(-5.91647e-14 -1.84088e-13 0)
(6.1411e-14 -1.25893e-13 0)
(2.68872e-15 -1.09618e-13 0)
(-4.31165e-14 -1.40894e-13 0)
(-5.55583e-14 -1.45264e-13 0)
(-6.4532e-14 -1.37183e-13 0)
(-1.9754e-14 -1.01707e-13 0)
(8.21317e-14 -7.6688e-14 0)
(1.145e-13 -1.63444e-14 0)
(5.51213e-14 1.41541e-14 0)
(-1.65653e-14 -1.6302e-14 0)
(-7.85767e-14 -1.80976e-14 0)
(-1.08832e-13 6.93123e-17 0)
(-5.65304e-14 1.21645e-14 0)
(3.19713e-14 -2.15549e-14 0)
(1.21375e-13 -1.70301e-14 0)
(1.11179e-13 -1.16837e-13 0)
(2.86612e-14 -2.4211e-13 0)
(-4.25981e-14 -2.59273e-13 0)
(-5.40708e-14 -1.60367e-13 0)
(-7.95095e-14 -4.93859e-14 0)
(-2.0464e-14 -8.97796e-14 0)
(6.48076e-14 -1.17281e-13 0)
(7.56648e-14 -1.93817e-13 0)
(3.4499e-14 -2.76643e-13 0)
(-3.18128e-14 -1.58512e-13 0)
(-2.23325e-14 -8.83668e-14 0)
(-7.42242e-14 -1.30854e-13 0)
(-1.5489e-13 -1.80181e-13 0)
(-1.19116e-13 -2.23995e-13 0)
(1.71324e-14 -1.64419e-13 0)
(1.02825e-13 -8.89237e-14 0)
(1.2941e-13 -1.17429e-13 0)
(9.39207e-14 -6.49752e-14 0)
(3.7385e-14 -4.89415e-14 0)
(9.79689e-15 -8.09907e-14 0)
(2.13572e-14 -4.52042e-14 0)
(-3.18622e-14 -2.84643e-14 0)
(-4.68457e-14 -4.84523e-14 0)
(6.99473e-14 -8.94008e-14 0)
(1.13922e-13 -1.95847e-13 0)
(3.37183e-14 -1.93911e-13 0)
(-7.98008e-15 -2.68231e-13 0)
(-4.35078e-14 -1.8503e-13 0)
(-6.9881e-15 -5.80524e-14 0)
(6.8611e-14 2.89379e-14 0)
(-9.27954e-15 -4.71827e-14 0)
(-4.26716e-14 -1.06056e-13 0)
(2.51798e-14 -1.6069e-13 0)
(2.84023e-14 -2.36868e-13 0)
(-1.87632e-14 -1.50256e-13 0)
(-5.51166e-15 -5.88952e-14 0)
(-3.12882e-14 -6.21938e-14 0)
(-5.48966e-14 -1.18188e-13 0)
(-2.1084e-14 -7.87434e-14 0)
(-2.49858e-14 -1.20255e-13 0)
(1.42407e-14 -1.25457e-13 0)
(3.13319e-14 -1.49109e-13 0)
(3.11317e-14 -7.93081e-14 0)
(-2.28057e-14 -7.48514e-14 0)
(-7.63931e-14 -1.07331e-13 0)
(-4.32898e-14 -7.79481e-14 0)
(-1.84151e-15 -8.31935e-14 0)
(-2.65153e-14 -3.14914e-14 0)
(4.91687e-14 -7.89293e-14 0)
(1.5712e-13 -1.62287e-13 0)
(8.03316e-14 -1.60762e-13 0)
(-1.28403e-14 -2.99444e-13 0)
(-7.25287e-14 -2.47762e-13 0)
(-6.69327e-14 -1.70272e-13 0)
(-1.02527e-13 -1.00962e-13 0)
(-3.62776e-14 -9.91742e-14 0)
(1.244e-13 -1.50342e-13 0)
(1.16528e-13 -2.32693e-13 0)
(4.29364e-15 -2.39448e-13 0)
(-5.06221e-14 -1.41428e-13 0)
(-1.30304e-14 -9.24324e-14 0)
(-6.43316e-14 -1.15314e-13 0)
(-1.54406e-13 -1.51431e-13 0)
(-8.57621e-14 -1.59585e-13 0)
(4.7899e-14 -1.55814e-13 0)
(1.21922e-13 -6.59091e-14 0)
(9.18897e-14 -2.43298e-14 0)
(5.86288e-14 -4.77739e-14 0)
(-8.14494e-15 -6.31889e-14 0)
(-5.91273e-14 -1.09e-13 0)
(-4.79558e-14 -8.47148e-14 0)
(-8.02402e-14 -6.90475e-14 0)
(-5.04445e-14 -4.24712e-14 0)
(6.22352e-14 -7.74487e-14 0)
(1.41799e-13 -1.1328e-13 0)
(8.71915e-14 -1.03535e-13 0)
(-2.78951e-14 -2.01751e-13 0)
(-1.46276e-14 -1.08908e-13 0)
(3.73213e-14 -6.78946e-14 0)
(2.45951e-16 -2.18548e-14 0)
(4.38353e-14 -7.09312e-14 0)
(1.05663e-13 -1.29702e-13 0)
(4.88768e-14 -2.13858e-13 0)
(-4.2621e-14 -2.25666e-13 0)
(-8.01417e-14 -1.40059e-13 0)
(-3.19789e-14 -1.05502e-13 0)
(-4.08892e-14 -8.59251e-14 0)
(-1.07695e-13 -1.54053e-13 0)
(-1.09662e-13 -1.3696e-13 0)
(-8.07941e-14 -4.29863e-14 0)
(-5.37844e-15 -3.71638e-15 0)
(7.32426e-14 -6.18193e-14 0)
(1.64846e-13 -1.15886e-14 0)
(1.08659e-13 -3.09675e-15 0)
(2.76331e-14 -3.91285e-14 0)
(-1.89287e-15 -8.28848e-15 0)
(-9.80763e-14 -5.54579e-15 0)
(-1.35518e-13 5.45367e-14 0)
(4.62446e-15 -8.4011e-15 0)
(1.18155e-13 -1.23951e-13 0)
(9.2038e-14 -1.83893e-13 0)
(3.14764e-14 -2.82079e-13 0)
(-2.25367e-14 -1.79223e-13 0)
(-1.5289e-13 -1.05756e-13 0)
(-1.84619e-13 -3.52201e-14 0)
(-4.24736e-14 -8.34599e-14 0)
(1.00187e-13 -5.25866e-14 0)
(1.88869e-13 -1.19434e-13 0)
(1.2643e-13 -1.75834e-13 0)
(3.34979e-14 -1.01681e-13 0)
(1.62863e-14 -6.19601e-14 0)
(-1.7669e-15 -7.31957e-14 0)
(-1.78799e-14 -4.27645e-14 0)
(-1.28566e-13 -6.2791e-14 0)
(-1.29978e-13 -1.02832e-13 0)
(-2.17749e-14 -4.92828e-14 0)
(8.98991e-14 -1.04101e-13 0)
(6.03851e-14 -4.04859e-14 0)
(-1.47246e-14 -4.36275e-14 0)
(-6.8907e-14 -1.15233e-13 0)
(-2.72489e-14 -7.59629e-14 0)
(3.67245e-14 -4.27891e-14 0)
(-2.63987e-14 1.29128e-15 0)
(-3.99532e-14 -5.07522e-14 0)
(9.42115e-14 -1.27228e-13 0)
(1.03251e-13 -1.77648e-13 0)
(2.79325e-14 -2.519e-13 0)
(-2.17296e-14 -2.44369e-13 0)
(7.56759e-16 -1.74185e-13 0)
(-1.099e-13 -1.19856e-13 0)
(-1.40909e-13 -6.88581e-14 0)
(3.46273e-15 -2.88734e-14 0)
(1.19861e-13 7.20943e-15 0)
(1.33395e-13 -1.35065e-13 0)
(1.84193e-13 -1.7565e-13 0)
(2.33185e-13 -1.32076e-13 0)
(6.9647e-15 -8.02786e-14 0)
(6.06349e-16 -8.8293e-14 0)
(-5.37041e-14 3.28446e-14 0)
(-1.34269e-13 9.54277e-14 0)
(-7.88462e-14 9.98834e-15 0)
(2.6748e-14 -5.40484e-14 0)
(-5.35791e-14 -9.73242e-14 0)
(-8.21404e-14 -2.03247e-13 0)
(1.87218e-15 -2.19587e-13 0)
(3.58519e-14 -1.57095e-13 0)
(-2.36419e-14 -8.38147e-14 0)
(-7.73644e-14 -8.29816e-14 0)
(8.36894e-14 -6.59975e-14 0)
(7.78531e-14 -7.27236e-14 0)
(-1.41685e-14 -1.45223e-13 0)
(9.21196e-15 -1.04302e-13 0)
(4.43463e-14 -1.42787e-13 0)
(-2.79487e-14 -9.78867e-14 0)
(-1.03176e-13 -1.0742e-13 0)
(-5.71047e-14 -6.26373e-14 0)
(-3.07606e-15 -7.21094e-14 0)
(6.9087e-14 -4.58119e-14 0)
(1.11204e-13 -5.75263e-14 0)
(1.37349e-13 -1.03857e-13 0)
(4.00307e-14 -7.12112e-14 0)
(-8.8351e-14 -1.11738e-13 0)
(-2.70144e-14 -8.03016e-14 0)
(2.83924e-14 2.26483e-15 0)
(-3.9001e-14 9.00989e-14 0)
(-1.70477e-15 3.33825e-14 0)
(5.48026e-14 -2.34165e-14 0)
(-6.5796e-14 -9.40666e-14 0)
(-8.37325e-14 -1.99244e-13 0)
(-5.59647e-15 -2.19173e-13 0)
(2.70494e-14 -1.35749e-13 0)
(-2.15933e-14 -7.79829e-14 0)
(-1.61376e-14 -5.78833e-14 0)
(4.51476e-14 -8.87026e-14 0)
(-3.90404e-14 -8.63207e-14 0)
(-2.14158e-14 -1.80172e-13 0)
(1.8892e-14 -1.7715e-13 0)
(2.1593e-14 -1.73455e-13 0)
(-8.04219e-14 -1.22281e-13 0)
(-1.47774e-13 -1.38048e-13 0)
(-3.70592e-14 -3.64826e-14 0)
(3.18952e-14 4.04682e-14 0)
(1.20368e-13 -2.51399e-14 0)
(1.54797e-13 -7.30218e-14 0)
(8.72255e-14 -1.25492e-13 0)
(1.57723e-14 -9.08829e-14 0)
(-3.86869e-14 -6.60623e-14 0)
(1.49053e-14 -1.091e-13 0)
(4.08859e-14 -5.75116e-14 0)
(-1.43792e-14 -1.09287e-14 0)
(-1.09781e-14 7.4996e-15 0)
(3.51815e-14 -1.02965e-13 0)
(-3.27787e-14 -1.42098e-13 0)
(-7.06661e-14 -1.99788e-13 0)
(4.92866e-14 -2.06243e-13 0)
(9.94226e-14 -1.2255e-13 0)
(7.04434e-14 -7.43706e-14 0)
(-1.04303e-13 -1.0152e-13 0)
(-6.90116e-14 -1.41432e-13 0)
(-4.60723e-14 -1.92017e-13 0)
(2.58914e-15 -1.91046e-13 0)
(6.95329e-14 -2.19691e-13 0)
(6.84045e-14 -1.60515e-13 0)
(-8.17592e-14 -8.846e-14 0)
(-8.1187e-14 -1.16094e-13 0)
(-6.82786e-14 -1.83986e-13 0)
(-7.65459e-14 -1.59428e-13 0)
(3.86135e-14 -1.5983e-13 0)
(6.37575e-14 -1.59294e-13 0)
(7.32898e-14 -1.81948e-13 0)
(-7.45761e-15 -9.89703e-14 0)
(-1.0483e-13 -8.28835e-14 0)
(-4.72514e-14 -8.66349e-14 0)
(3.79609e-14 -7.14202e-14 0)
(3.33861e-14 -4.52412e-14 0)
(-8.8497e-16 -1.8602e-14 0)
(8.03246e-14 -6.65381e-14 0)
(-5.74633e-14 -1.24502e-13 0)
(-9.37009e-14 -2.1935e-13 0)
(-1.67057e-14 -2.40336e-13 0)
(2.96839e-14 -1.66481e-13 0)
(-2.44006e-14 -1.15882e-13 0)
(-3.20941e-14 -7.90153e-14 0)
(5.44027e-14 -1.28672e-13 0)
(4.02788e-14 -1.52598e-13 0)
(3.75994e-16 -1.90549e-13 0)
(1.53389e-14 -1.8938e-13 0)
(2.89663e-14 -1.72558e-13 0)
(-9.27109e-14 -1.25161e-13 0)
(-1.04198e-13 -1.25566e-13 0)
(-6.19035e-14 -3.73139e-14 0)
(2.93726e-14 -4.10499e-14 0)
(1.35372e-13 -7.50896e-14 0)
(1.10879e-13 -9.61367e-14 0)
(2.35236e-14 -1.2692e-13 0)
(-8.72777e-14 -1.44815e-13 0)
(-1.2983e-13 -1.61741e-13 0)
(-3.40212e-14 -1.80772e-13 0)
(5.04458e-14 -9.0266e-14 0)
(2.72346e-14 1.35072e-14 0)
(3.2952e-14 -3.65254e-14 0)
(1.45144e-13 -4.22934e-14 0)
(1.16087e-15 -9.36058e-14 0)
(-8.09131e-14 -1.85333e-13 0)
(5.21997e-14 -1.96182e-13 0)
(9.15177e-14 -1.11034e-13 0)
(-1.94991e-14 -9.59508e-14 0)
(-5.39905e-14 -1.5511e-13 0)
(4.62694e-14 -2.08635e-13 0)
(-4.98044e-15 -2.3106e-13 0)
(-3.86877e-14 -2.97653e-13 0)
(1.68655e-15 -2.5247e-13 0)
(3.24142e-14 -1.649e-13 0)
(-8.39082e-14 -1.07367e-13 0)
(-1.73091e-13 -1.2546e-13 0)
(-3.42804e-14 -8.06008e-14 0)
(1.42182e-15 -5.15815e-14 0)
(6.35518e-14 -1.75316e-14 0)
(1.19905e-13 8.43011e-15 0)
(1.28848e-13 -3.10481e-14 0)
(4.05381e-14 -6.69147e-14 0)
(-5.04598e-14 -1.12857e-13 0)
(1.87849e-14 -8.67043e-14 0)
(8.50779e-15 9.68957e-15 0)
(-4.80383e-14 7.20329e-14 0)
(-8.89639e-14 3.48038e-15 0)
(2.66776e-14 -2.62371e-14 0)
(-9.37649e-15 -1.10698e-13 0)
(-5.05909e-14 -2.09759e-13 0)
(5.24075e-14 -2.28034e-13 0)
(-3.03493e-15 -9.7191e-14 0)
(-9.73633e-14 -7.83773e-15 0)
(-3.99405e-14 -5.70454e-14 0)
(5.94576e-14 -4.56933e-14 0)
(4.64606e-14 -5.68626e-14 0)
(6.74984e-14 -1.52392e-13 0)
(1.02599e-13 -1.7781e-13 0)
(4.93296e-14 -1.9585e-13 0)
(1.10473e-14 -8.53106e-14 0)
(-6.0118e-14 -6.12628e-14 0)
(-8.93735e-14 -7.66848e-14 0)
(-6.27111e-14 -2.1175e-14 0)
(8.95905e-15 1.22262e-14 0)
(1.97404e-14 -3.5447e-14 0)
(4.70435e-14 -1.00491e-13 0)
(-6.42926e-14 -6.13629e-14 0)
(-1.0043e-13 -8.37979e-14 0)
(2.39947e-14 -6.29179e-14 0)
(1.16181e-13 -7.69451e-14 0)
(3.38734e-14 -4.33931e-14 0)
(-4.8395e-14 2.09749e-14 0)
(2.60796e-14 -3.77099e-14 0)
(2.01135e-14 -1.47804e-13 0)
(-3.66873e-14 -2.43712e-13 0)
(6.90075e-15 -2.28856e-13 0)
(4.92492e-14 -1.8385e-13 0)
(-2.1061e-14 -1.01719e-13 0)
(-7.83303e-14 -3.8879e-14 0)
(3.12799e-14 -2.53129e-14 0)
(6.97959e-14 -1.00171e-14 0)
(4.78209e-14 -4.19099e-14 0)
(2.08505e-13 -1.09582e-13 0)
(2.93223e-13 -7.03994e-14 0)
(-5.60493e-15 -2.70749e-14 0)
(7.03008e-14 1.8275e-14 0)
(-6.39116e-15 6.68175e-14 0)
(-1.49305e-13 4.01505e-14 0)
(-8.94515e-14 2.21354e-14 0)
(1.14066e-14 2.81133e-14 0)
(-1.12955e-13 -6.06605e-15 0)
(-8.86803e-14 -2.31764e-14 0)
(-1.47714e-15 -2.39525e-14 0)
(5.57615e-14 2.25837e-14 0)
(-2.06273e-14 1.8947e-14 0)
(-6.15189e-14 4.95116e-14 0)
(1.27795e-13 9.70885e-14 0)
(7.39243e-14 7.09881e-14 0)
(-4.72816e-14 7.71293e-14 0)
(-5.71765e-14 1.15046e-13 0)
(2.26499e-14 4.61307e-14 0)
(6.55638e-15 2.00327e-14 0)
(-7.00551e-14 9.13428e-14 0)
(-3.83538e-14 1.64071e-13 0)
(-1.63058e-14 1.92642e-13 0)
(6.46726e-14 2.05456e-13 0)
(6.48288e-14 1.38835e-13 0)
(1.17895e-13 6.10625e-14 0)
(4.08272e-14 2.43277e-14 0)
(-4.47504e-14 6.96616e-14 0)
(-1.50836e-14 1.14954e-13 0)
(6.73443e-14 1.41272e-13 0)
(-2.14237e-15 1.34574e-13 0)
(-6.8671e-14 1.15115e-13 0)
(-3.59439e-14 2.804e-14 0)
(-8.16487e-14 -9.80794e-16 0)
(-8.46955e-14 -1.06051e-14 0)
(-1.20594e-14 -2.1844e-14 0)
(5.29996e-14 2.53707e-14 0)
(-7.81924e-15 5.57371e-14 0)
(-2.20661e-14 5.47796e-14 0)
(7.12972e-14 4.41765e-14 0)
(-6.02979e-14 6.10846e-14 0)
(-8.11141e-14 5.59972e-14 0)
(-2.03275e-14 1.39073e-14 0)
(2.35292e-14 -1.57851e-14 0)
(-6.91368e-14 2.95115e-14 0)
(-8.42483e-14 1.00829e-13 0)
(2.38595e-14 1.33284e-13 0)
(4.34528e-15 1.3126e-13 0)
(5.0015e-14 1.28587e-13 0)
(9.54281e-14 7.20415e-14 0)
(8.94651e-14 5.49726e-14 0)
(2.21592e-14 7.34012e-14 0)
(4.69333e-15 8.49527e-14 0)
(4.31604e-14 1.04731e-13 0)
(3.54259e-14 1.01991e-13 0)
(9.07621e-15 1.07046e-13 0)
(-4.19351e-14 1.50882e-13 0)
(-6.19263e-14 5.89259e-14 0)
(-4.22362e-14 -1.13564e-14 0)
(-5.91307e-14 -3.30632e-14 0)
(1.94656e-14 -1.06302e-14 0)
(8.91128e-14 -1.0991e-14 0)
(4.82124e-14 -3.53144e-14 0)
(-8.61388e-14 -2.12661e-14 0)
(-6.34095e-14 -2.83216e-14 0)
(-7.92541e-15 -1.22281e-14 0)
(-1.7396e-14 -1.41562e-15 0)
(2.8672e-14 -5.42644e-14 0)
(9.04627e-14 -7.08341e-14 0)
(-7.08292e-15 -1.07344e-14 0)
(-1.16052e-13 7.80745e-14 0)
(-1.18053e-13 2.67427e-14 0)
(-4.73888e-14 4.97386e-14 0)
(5.29735e-14 5.03177e-14 0)
(6.11985e-14 2.03019e-14 0)
(7.48474e-14 -2.42026e-14 0)
(6.29289e-15 -1.95645e-14 0)
(-6.55491e-14 4.91717e-14 0)
(-1.6349e-14 7.39161e-14 0)
(1.32596e-14 1.11272e-13 0)
(5.37816e-14 5.68245e-14 0)
(2.21993e-14 8.56983e-14 0)
(-4.94373e-15 5.43685e-14 0)
(-9.84411e-14 2.01679e-14 0)
(-9.19455e-14 -9.69294e-15 0)
(-1.70809e-14 -1.3878e-14 0)
(3.21969e-14 4.10783e-14 0)
(2.71471e-16 5.67281e-14 0)
(-9.08806e-15 1.02365e-13 0)
(6.65704e-14 9.41039e-14 0)
(8.62148e-14 8.78072e-14 0)
(1.65505e-14 6.50574e-14 0)
(-4.81682e-14 7.16454e-14 0)
(-1.25926e-14 2.12385e-14 0)
(-6.5777e-14 6.74103e-14 0)
(-8.73416e-14 1.22883e-13 0)
(-3.98404e-14 1.39135e-13 0)
(2.31066e-14 1.27871e-13 0)
(9.57349e-14 9.46546e-14 0)
(7.52556e-14 -1.94734e-15 0)
(-1.8788e-14 -5.23755e-14 0)
(-8.15265e-14 -2.51479e-14 0)
(-8.37382e-14 1.66269e-14 0)
(-2.78197e-14 3.64726e-14 0)
(7.36797e-14 7.51928e-14 0)
(5.65806e-14 9.45121e-14 0)
(9.24525e-15 7.86498e-14 0)
(9.6056e-14 3.84526e-14 0)
(-3.86998e-14 -1.37534e-14 0)
(-8.24052e-14 -8.54044e-15 0)
(2.96332e-14 -4.03619e-14 0)
(9.87403e-14 -1.04016e-14 0)
(-3.35749e-14 -1.00957e-14 0)
(-8.39795e-14 -1.7419e-14 0)
(1.80838e-14 -4.69506e-14 0)
(-5.02199e-15 -4.59865e-14 0)
(-1.79291e-14 -2.47163e-14 0)
(1.85669e-14 -4.23281e-14 0)
(3.87346e-14 -3.22323e-14 0)
(-5.04041e-14 4.22916e-15 0)
(-1.10018e-13 8.08153e-14 0)
(-5.48041e-14 1.23499e-13 0)
(1.91661e-14 1.25601e-13 0)
(9.303e-14 1.5961e-13 0)
(8.32896e-14 1.22175e-13 0)
(6.03168e-14 4.88871e-14 0)
(-2.28573e-15 1.38297e-14 0)
(-4.34542e-15 6.80499e-14 0)
(5.67737e-14 1.25322e-13 0)
(3.66835e-14 1.2959e-13 0)
(-6.87147e-14 9.95878e-14 0)
(-1.03065e-13 8.07963e-14 0)
(7.19046e-15 7.26842e-14 0)
(-5.28172e-14 6.02056e-14 0)
(-8.89102e-14 -7.66827e-15 0)
(-1.70447e-15 -1.22544e-14 0)
(5.60587e-14 3.43376e-14 0)
(-5.71019e-14 6.2622e-14 0)
(-8.25455e-14 6.06521e-14 0)
(1.01795e-13 3.75392e-14 0)
(5.66638e-14 4.3805e-14 0)
(-1.39626e-14 2.71476e-14 0)
(1.54344e-14 -2.16342e-14 0)
(7.98988e-14 -7.37106e-14 0)
(7.48381e-14 -1.12429e-14 0)
(-3.10042e-14 7.35743e-14 0)
(-7.0544e-14 1.18628e-13 0)
(-4.39159e-14 2.05566e-13 0)
(-4.305e-14 1.75997e-13 0)
(-1.60392e-14 1.18949e-13 0)
(6.08027e-14 5.40965e-14 0)
(-3.05636e-14 4.9421e-14 0)
(-7.20263e-14 9.88331e-14 0)
(1.51513e-14 1.2185e-13 0)
(6.8697e-14 9.91771e-14 0)
(6.13579e-14 5.10802e-14 0)
(-3.22126e-14 1.02348e-13 0)
(-4.82266e-14 5.20428e-14 0)
(-2.63995e-14 -1.07037e-14 0)
(-5.66058e-14 -5.47914e-14 0)
(8.09379e-15 -5.82708e-14 0)
(8.42266e-14 -1.77314e-14 0)
(8.39123e-15 -3.77422e-15 0)
(-8.07858e-14 5.58106e-14 0)
(8.3645e-14 4.20069e-14 0)
(9.67721e-14 3.9494e-14 0)
(4.07942e-14 3.23272e-14 0)
(1.63913e-13 5.98591e-14 0)
(3.03917e-13 -4.19335e-14 0)
(3.32321e-14 3.09917e-14 0)
(8.55315e-14 7.34274e-14 0)
(-2.48079e-14 8.59067e-14 0)
(-1.77682e-13 7.23782e-14 0)
(-8.78535e-14 1.17751e-13 0)
(2.94166e-16 5.93786e-14 0)
(-1.05727e-13 -4.91205e-15 0)
(-8.75908e-14 4.8629e-14 0)
(7.5076e-14 5.9049e-14 0)
(7.42438e-14 3.72702e-14 0)
(1.16006e-15 1.37434e-14 0)
(-1.10103e-14 1.27343e-13 0)
(7.91994e-14 1.42487e-13 0)
(3.3815e-14 1.13221e-13 0)
(3.65538e-14 2.09255e-13 0)
(-2.05848e-14 2.23297e-13 0)
(-4.77111e-14 1.21596e-13 0)
(3.38912e-14 3.34676e-14 0)
(3.21619e-14 5.69611e-14 0)
(4.65344e-14 1.22201e-13 0)
(5.87967e-14 2.58737e-13 0)
(1.422e-14 2.99772e-13 0)
(-1.62565e-14 2.12994e-13 0)
(5.26053e-14 1.50597e-13 0)
(6.22772e-14 3.77381e-14 0)
(3.55141e-14 8.94381e-14 0)
(2.50139e-14 1.58525e-13 0)
(2.00742e-15 1.34352e-13 0)
(-7.29623e-14 6.35157e-14 0)
(-1.2373e-13 9.79342e-14 0)
(-6.37881e-14 6.39691e-14 0)
(-1.08746e-13 -5.23225e-15 0)
(-6.91894e-14 2.73191e-14 0)
(7.11977e-14 2.41116e-14 0)
(1.12084e-13 6.51515e-14 0)
(-8.19782e-15 3.2301e-14 0)
(-3.58678e-14 8.9073e-14 0)
(1.15997e-14 1.28354e-13 0)
(-2.22811e-14 7.0967e-14 0)
(-3.57992e-14 1.50108e-13 0)
(-4.6307e-15 7.71648e-14 0)
(2.58606e-14 3.04909e-14 0)
(-2.73066e-15 2.55849e-15 0)
(-3.09566e-14 6.0904e-14 0)
(-5.37774e-14 7.37001e-14 0)
(2.87999e-14 8.22795e-14 0)
(8.08059e-14 1.95902e-13 0)
(3.87015e-14 1.85072e-13 0)
(8.9416e-14 2.01911e-13 0)
(8.19115e-14 1.67151e-13 0)
(6.50966e-14 1.90573e-13 0)
(3.88418e-14 1.69008e-13 0)
(-4.01777e-14 1.51901e-13 0)
(-5.84584e-14 1.04443e-13 0)
(-9.69022e-14 7.14815e-14 0)
(-7.14579e-14 2.16918e-14 0)
(-7.53183e-14 -8.72464e-15 0)
(-3.2863e-14 5.36071e-14 0)
(1.07978e-13 5.4871e-14 0)
(6.68245e-14 2.94562e-14 0)
(3.52138e-14 -7.28198e-14 0)
(-8.67143e-14 -7.39095e-14 0)
(-7.11113e-14 -1.92453e-14 0)
(-5.07471e-14 4.7234e-14 0)
(-1.29276e-14 6.62667e-14 0)
(3.016e-14 3.4548e-14 0)
(9.79905e-14 -4.06093e-15 0)
(5.91179e-14 -2.3151e-14 0)
(-2.14605e-14 3.88551e-14 0)
(-7.28124e-14 9.25481e-14 0)
(-5.2574e-14 9.98304e-14 0)
(1.65314e-14 7.03068e-14 0)
(1.91247e-14 3.29576e-14 0)
(5.33006e-14 2.85589e-14 0)
(4.23352e-14 3.79951e-14 0)
(-1.90414e-14 2.94208e-14 0)
(-7.655e-15 2.47099e-14 0)
(-2.17812e-14 5.02809e-14 0)
(-9.87611e-15 8.01283e-14 0)
(1.31339e-14 8.63158e-14 0)
(1.89617e-14 1.2689e-13 0)
(-1.07501e-13 6.28248e-14 0)
(-1.00929e-13 1.01918e-13 0)
(4.45421e-14 8.22601e-14 0)
(1.2048e-13 9.35573e-14 0)
(3.98871e-14 7.95386e-14 0)
(-4.77874e-14 1.7528e-13 0)
(7.04138e-15 1.95795e-13 0)
(8.3905e-14 1.84809e-13 0)
(5.43995e-14 2.51887e-13 0)
(-1.57057e-14 2.07171e-13 0)
(-2.09723e-14 2.16337e-13 0)
(3.22043e-14 1.50621e-13 0)
(-2.39392e-14 1.52624e-13 0)
(-8.81785e-14 1.07429e-13 0)
(-4.28931e-14 1.35298e-13 0)
(2.27708e-14 9.0229e-14 0)
(-1.12086e-14 2.22181e-14 0)
(2.17714e-14 -3.51339e-15 0)
(2.28797e-15 5.79461e-15 0)
(-1.26236e-14 4.05148e-14 0)
(-9.07706e-15 5.80322e-14 0)
(3.42271e-14 7.20467e-14 0)
(9.54473e-15 3.34407e-14 0)
(-2.20615e-14 8.49315e-14 0)
(2.12858e-14 3.99319e-14 0)
(-8.37429e-14 -1.99948e-15 0)
(-6.02462e-14 8.25864e-14 0)
(6.26689e-14 3.94536e-14 0)
(9.31482e-14 -1.29289e-14 0)
(-2.18289e-14 -4.31641e-14 0)
(-1.06793e-13 3.51249e-14 0)
(2.03853e-14 2.9442e-14 0)
(4.40928e-14 9.87996e-14 0)
(1.4895e-14 1.39621e-13 0)
(-2.02657e-15 7.52937e-14 0)
(5.12702e-14 2.05534e-14 0)
(3.82921e-14 -3.0172e-14 0)
(-6.22337e-15 5.05377e-14 0)
(-4.28363e-15 1.78479e-13 0)
(-4.03466e-15 2.76292e-13 0)
(7.15708e-14 2.59604e-13 0)
(7.19218e-15 2.01875e-13 0)
(-1.03152e-14 9.23998e-14 0)
(5.27024e-14 2.32785e-14 0)
(7.7566e-14 9.75082e-14 0)
(6.1154e-14 1.58463e-13 0)
(-1.30677e-14 1.65507e-13 0)
(-1.03915e-13 8.84087e-14 0)
(-1.24695e-13 1.21046e-13 0)
(-3.91233e-14 6.99135e-14 0)
(-7.44847e-14 1.10258e-14 0)
(-8.59332e-14 4.52517e-14 0)
(6.98556e-14 5.49563e-14 0)
(7.55836e-14 3.23611e-14 0)
(-5.47123e-14 5.46596e-14 0)
(-9.27073e-14 1.74774e-13 0)
(1.76845e-14 1.43751e-13 0)
(3.99949e-14 2.84324e-14 0)
(4.77137e-14 1.1635e-13 0)
(-3.55206e-14 3.36119e-14 0)
(4.33693e-14 8.7085e-15 0)
(1.35908e-13 -4.96957e-14 0)
(6.99819e-14 5.33567e-15 0)
(4.0896e-14 1.30247e-13 0)
(-1.07179e-14 1.88749e-13 0)
(-7.03712e-14 2.0526e-13 0)
(-7.89547e-14 1.80405e-13 0)
(7.66828e-15 1.3075e-13 0)
(-5.97599e-15 2.46362e-14 0)
(-2.43928e-14 5.66876e-14 0)
(-3.15065e-14 4.39274e-14 0)
(-4.95084e-16 3.78236e-14 0)
(1.56398e-14 1.41244e-14 0)
(-4.59132e-14 2.87818e-14 0)
(-4.54231e-14 6.15083e-14 0)
(-7.84685e-14 3.53796e-14 0)
(-5.39441e-14 7.39718e-14 0)
(8.56597e-14 6.72925e-14 0)
(7.31236e-14 7.00317e-14 0)
(2.73249e-14 1.91705e-14 0)
(-6.63149e-14 6.03693e-14 0)
(2.09243e-14 7.30075e-14 0)
(6.26589e-14 -2.76425e-14 0)
(7.28599e-14 -2.38137e-15 0)
(1.35293e-13 -1.5221e-14 0)
(2.2336e-13 -5.97988e-14 0)
(9.90298e-14 -2.03656e-14 0)
(1.35315e-13 3.24539e-14 0)
(4.3748e-14 -6.60621e-15 0)
(-1.46008e-13 5.38478e-14 0)
(-1.1393e-13 3.4645e-14 0)
(-8.93838e-14 -3.27144e-15 0)
(-8.67678e-14 -3.46599e-14 0)
(-5.53727e-14 2.75201e-14 0)
(1.28253e-14 4.11024e-14 0)
(4.0763e-14 1.70317e-15 0)
(4.63743e-14 -1.63892e-14 0)
(5.24355e-14 2.54588e-14 0)
(9.54694e-14 3.67103e-14 0)
(1.00343e-13 7.03755e-14 0)
(4.91782e-14 9.57506e-14 0)
(-1.00771e-13 4.84072e-14 0)
(-1.18248e-13 5.07288e-14 0)
(-9.11764e-15 -8.83738e-15 0)
(9.57602e-14 -1.17382e-14 0)
(1.48341e-13 6.4263e-14 0)
(1.29149e-13 4.11502e-14 0)
(1.67565e-14 9.85073e-14 0)
(-4.53474e-14 1.58795e-13 0)
(-5.86071e-14 6.45139e-14 0)
(-2.53108e-15 1.09445e-14 0)
(6.6295e-14 2.9425e-14 0)
(5.49407e-14 -1.70266e-14 0)
(-3.29766e-15 1.44673e-14 0)
(-4.61221e-14 1.97152e-14 0)
(-1.06271e-13 2.99225e-14 0)
(-1.3219e-13 4.46678e-14 0)
(-1.21086e-13 -2.46108e-14 0)
(-4.63625e-14 2.31236e-14 0)
(3.23381e-14 3.93248e-15 0)
(8.32057e-14 -4.32649e-14 0)
(3.62705e-14 -4.74524e-15 0)
(3.45676e-14 -7.11269e-15 0)
(2.74945e-14 1.04792e-14 0)
(-3.10978e-14 1.46601e-14 0)
(-1.34184e-14 1.81573e-14 0)
(-3.4093e-14 -1.0685e-14 0)
(-4.41677e-14 2.47447e-15 0)
(-1.58436e-14 -2.76985e-14 0)
(7.61842e-15 -3.23742e-14 0)
(9.56321e-15 -1.63061e-14 0)
(9.20661e-14 4.0602e-14 0)
(1.20814e-13 5.77079e-14 0)
(7.82912e-14 1.21672e-13 0)
(4.15312e-14 1.77976e-13 0)
(1.14106e-14 6.60969e-14 0)
(2.18269e-14 6.39524e-14 0)
(2.23981e-14 1.6981e-14 0)
(-1.77541e-14 6.04044e-15 0)
(-7.53211e-14 6.62008e-14 0)
(-1.4676e-13 -5.02465e-14 0)
(-1.06201e-13 -2.2068e-14 0)
(-4.2186e-14 -2.34598e-14 0)
(1.62277e-14 2.88265e-14 0)
(3.77324e-14 4.36589e-14 0)
(-4.98623e-15 -5.95395e-14 0)
(-1.34752e-14 -1.05399e-13 0)
(-4.92303e-14 -1.18314e-13 0)
(4.77249e-15 -8.38508e-14 0)
(1.05264e-14 -3.84636e-14 0)
(-1.48596e-14 -4.9642e-15 0)
(-4.02943e-15 -1.51154e-14 0)
(3.65281e-14 2.18e-14 0)
(5.47406e-14 -3.05424e-14 0)
(2.04345e-14 2.9205e-15 0)
(-2.51517e-14 -2.26827e-14 0)
(-4.94898e-14 4.12521e-15 0)
(-1.84167e-14 5.88792e-15 0)
(6.26871e-15 -1.7805e-14 0)
(5.64792e-14 -2.10791e-14 0)
(1.05403e-14 -6.51473e-14 0)
(-3.2558e-14 -6.91663e-14 0)
(1.71055e-14 -8.4256e-14 0)
(4.69687e-14 -6.04535e-14 0)
(4.83808e-14 9.05586e-16 0)
(4.30526e-14 2.08009e-15 0)
(5.76141e-15 4.60892e-14 0)
(-8.52611e-14 5.72427e-15 0)
(-9.3378e-14 6.62579e-14 0)
(-1.97227e-14 1.16475e-13 0)
(3.21121e-14 3.03557e-14 0)
(9.44027e-14 1.55597e-14 0)
(4.70754e-14 3.98839e-14 0)
(7.90191e-14 1.02661e-13 0)
(1.34499e-13 1.01911e-13 0)
(2.9722e-14 1.25545e-13 0)
(-3.59204e-14 7.4664e-14 0)
(-8.09269e-14 6.79394e-14 0)
(-3.26268e-14 2.56448e-14 0)
(-6.44814e-14 5.06074e-14 0)
(-4.67357e-14 -2.03126e-14 0)
(-2.38029e-14 -2.0774e-14 0)
(-3.91876e-14 -3.25611e-14 0)
(-4.699e-14 -3.20844e-14 0)
(-1.56089e-14 -2.03593e-15 0)
(-4.9832e-15 -3.09155e-14 0)
(-7.83673e-15 -9.88914e-15 0)
(-3.74507e-15 -1.66727e-14 0)
(2.47314e-14 -2.98793e-14 0)
(6.2595e-14 -4.48828e-14 0)
(2.47814e-14 4.35636e-15 0)
(-5.36788e-14 -1.13853e-14 0)
(-2.64881e-14 -3.59201e-14 0)
(-1.12084e-14 5.35497e-14 0)
(-5.67386e-14 9.07423e-16 0)
(4.21652e-15 -7.75675e-14 0)
(2.12376e-14 -7.98351e-14 0)
(-9.30797e-15 -4.5891e-14 0)
(6.35255e-14 -1.13971e-14 0)
(9.89188e-14 4.30692e-14 0)
(-1.84444e-14 6.15304e-14 0)
(-7.08152e-14 -9.5698e-15 0)
(-2.31138e-14 -6.13586e-15 0)
(5.80419e-15 -6.40701e-14 0)
(7.16808e-14 -6.35279e-14 0)
(1.08975e-13 2.02559e-14 0)
(6.60208e-14 1.09083e-13 0)
(2.5543e-14 8.44341e-14 0)
(-2.85758e-14 9.65893e-14 0)
(-7.89646e-14 2.31484e-14 0)
(1.43175e-14 -2.25801e-14 0)
(1.06489e-13 -1.43524e-14 0)
(8.85279e-14 2.85697e-14 0)
(-1.64823e-15 -1.84334e-14 0)
(-1.27831e-13 3.07563e-14 0)
(-7.207e-14 -4.55133e-15 0)
(-1.17694e-13 -9.80775e-15 0)
(-9.13919e-14 -4.44818e-14 0)
(-3.61049e-14 9.13174e-15 0)
(3.13708e-14 -7.27368e-15 0)
(7.59949e-14 -5.4312e-14 0)
(1.46386e-14 8.71627e-16 0)
(5.62853e-15 7.01505e-14 0)
(-2.27945e-14 4.32961e-14 0)
(3.59429e-14 7.53168e-14 0)
(5.74466e-15 4.7518e-14 0)
(-7.27016e-14 -1.30931e-14 0)
(-1.2085e-15 8.36706e-15 0)
(8.91267e-14 -7.21673e-14 0)
(1.56563e-13 -7.58537e-14 0)
(1.3305e-13 2.0738e-14 0)
(3.93532e-14 -1.39794e-14 0)
(-5.65467e-14 3.9637e-14 0)
(-1.0797e-13 8.26762e-14 0)
(-7.15989e-14 3.06013e-14 0)
(-5.8882e-14 -4.16483e-14 0)
(-3.74976e-14 -6.27288e-14 0)
(-4.15979e-14 -7.28011e-14 0)
(2.70261e-14 -6.93173e-14 0)
(5.48803e-14 -8.92505e-14 0)
(7.9976e-15 -4.13975e-14 0)
(-5.71951e-14 1.88134e-14 0)
(-2.64579e-14 1.81127e-14 0)
(-6.95856e-16 1.2787e-13 0)
(1.05496e-14 4.32313e-14 0)
(5.83791e-14 -1.22471e-14 0)
(1.63955e-14 5.10522e-14 0)
(-2.92011e-14 2.7885e-15 0)
(-1.62614e-14 1.22387e-14 0)
(2.65951e-14 -3.60268e-14 0)
(2.68032e-14 -7.41441e-14 0)
(1.0156e-13 -8.99319e-14 0)
(2.56954e-13 -9.36929e-15 0)
(1.48086e-13 6.86016e-14 0)
(1.45026e-13 1.55825e-14 0)
(-6.10745e-15 -2.26443e-14 0)
(-1.52252e-13 -2.53231e-14 0)
(-1.38521e-13 -4.78746e-14 0)
(-5.99233e-14 -2.98981e-14 0)
(-8.91343e-14 1.3209e-14 0)
(-6.26028e-14 -3.19859e-14 0)
(3.63032e-15 -3.77702e-15 0)
(2.31114e-14 4.01141e-14 0)
(3.85754e-14 5.14898e-14 0)
(3.06243e-14 4.66084e-14 0)
(1.10174e-13 -1.06671e-14 0)
(1.28532e-13 -1.00414e-13 0)
(6.24944e-15 -1.37346e-13 0)
(-1.21657e-13 -1.11602e-13 0)