/*--------------------------------*- C++ -*----------------------------------*\
  =========                 |
  \\      /  F ield         | OpenFOAM: The Open Source CFD Toolbox
   \\    /   O peration     | Website:  https://openfoam.org
    \\  /    A nd           | Version:  13
     \\/     M anipulation  |
\*---------------------------------------------------------------------------*/
FoamFile
{
    format      ascii;
    class       volVectorField;
    location    "0.0014";
    object      U;
}
// * * * * * * * * * * * * * * * * * * * * * * * * * * * * * * * * * * * * * //

dimensions      [0 1 -1 0 0 0 0];

internalField   nonuniform List<vector> 
33333
(
(7.893e-14 3.25022e-13 0)
(1.4507e-14 3.72198e-13 0)
(5.87297e-14 4.30671e-13 0)
(-2.09844e-14 3.32123e-13 0)
(-4.72351e-14 2.66671e-13 0)
(1.77797e-13 1.48673e-13 0)
(3.30311e-13 1.82974e-13 0)
(2.25828e-13 1.61114e-13 0)
(-2.66179e-15 1.44043e-13 0)
(1.27127e-13 2.16732e-13 0)
(2.59119e-13 1.15258e-13 0)
(-2.93382e-14 4.89004e-14 0)
(-3.08568e-13 9.24578e-14 0)
(-2.90737e-13 2.93645e-13 0)
(-1.88136e-14 3.96823e-13 0)
(-8.40214e-14 2.12926e-13 0)
(-9.13153e-14 2.86147e-13 0)
(2.50587e-14 2.35784e-13 0)
(-3.03233e-14 4.8323e-14 0)
(-9.1207e-14 -1.33324e-13 0)
(-6.49079e-14 -1.95539e-13 0)
(4.11734e-14 -2.04059e-13 0)
(-2.91968e-14 -1.64823e-13 0)
(-7.06005e-14 -8.33284e-14 0)
(1.98922e-14 6.48711e-14 0)
(-6.1233e-14 6.90335e-14 0)
(-1.42813e-13 2.17785e-14 0)
(-1.18526e-13 -5.25612e-14 0)
(-1.43483e-13 -9.94112e-14 0)
(-5.07566e-14 -1.05218e-13 0)
(9.70832e-14 -9.59602e-14 0)
(6.21132e-14 -2.59478e-14 0)
(1.8647e-13 -9.34763e-15 0)
(2.45425e-13 8.25917e-14 0)
(9.01243e-14 4.6382e-14 0)
(7.72613e-15 -4.28114e-16 0)
(1.43714e-14 3.31392e-14 0)
(-1.28094e-13 6.08469e-14 0)
(-1.18698e-13 1.13394e-13 0)
(-1.10366e-13 2.41752e-13 0)
(-5.32705e-14 1.18939e-13 0)
(5.43916e-14 1.52024e-13 0)
(1.17261e-13 2.0482e-13 0)
(1.26011e-13 1.30111e-13 0)
(3.79053e-14 9.09013e-14 0)
(1.85067e-14 3.48758e-14 0)
(6.78988e-14 1.05156e-13 0)
(1.77186e-14 1.53142e-13 0)
(1.71879e-13 2.89257e-13 0)
(3.14988e-13 1.63489e-13 0)
(3.37082e-13 6.08412e-14 0)
(1.28826e-13 -1.41092e-14 0)
(4.17867e-14 -4.43942e-16 0)
(2.07522e-13 -9.43216e-15 0)
(8.60963e-14 8.58269e-14 0)
(-2.20813e-13 1.66485e-13 0)
(-4.63856e-13 2.79704e-13 0)
(-3.86459e-13 3.28431e-13 0)
(-1.89323e-13 3.8536e-13 0)
(-2.21637e-14 3.94115e-13 0)
(8.20852e-14 2.40564e-13 0)
(1.32551e-13 2.32871e-13 0)
(1.3226e-13 2.31209e-13 0)
(-4.38617e-14 2.11705e-13 0)
(-1.35444e-13 2.54725e-13 0)
(-6.37336e-14 3.63786e-13 0)
(9.45303e-14 4.40616e-13 0)
(2.06648e-13 3.42263e-13 0)
(1.42969e-13 1.66241e-13 0)
(2.16561e-13 1.72378e-13 0)
(1.06505e-13 8.00802e-15 0)
(-1.27076e-13 1.01559e-13 0)
(-2.0583e-14 1.89202e-13 0)
(-4.70784e-14 1.86264e-13 0)
(-1.739e-13 6.88869e-14 0)
(-1.32563e-13 6.96645e-14 0)
(-4.68897e-14 1.01711e-14 0)
(8.39394e-15 -8.51377e-14 0)
(3.46438e-14 -2.16651e-13 0)
(2.51427e-14 -1.85332e-13 0)
(6.8779e-15 2.50287e-15 0)
(1.82834e-15 1.94072e-13 0)
(-8.21262e-15 2.68558e-13 0)
(-4.79898e-14 2.48882e-13 0)
(-8.4578e-14 2.94789e-13 0)
(-1.66101e-13 2.96253e-13 0)
(-2.12203e-13 2.54668e-13 0)
(-8.69996e-14 2.90923e-13 0)
(-1.57566e-14 3.79738e-13 0)
(-1.51838e-14 3.28593e-13 0)
(-3.65199e-14 3.72732e-13 0)
(1.11374e-13 4.52121e-13 0)
(3.30092e-13 3.81578e-13 0)
(4.13183e-13 1.22897e-13 0)
(2.07792e-13 2.4797e-14 0)
(-1.26633e-13 2.78692e-14 0)
(-3.07924e-13 2.05445e-13 0)
(-2.22959e-13 2.57581e-13 0)
(-4.89957e-15 2.27129e-13 0)
(7.15886e-14 2.50919e-13 0)
(-1.00042e-13 1.94153e-13 0)
(-4.5673e-14 2.85057e-13 0)
(1.27253e-13 2.07681e-13 0)
(2.32879e-13 1.83549e-13 0)
(4.31445e-14 8.8841e-14 0)
(-1.28392e-13 2.36279e-13 0)
(9.23927e-15 3.65457e-13 0)
(-3.39919e-14 2.87048e-13 0)
(2.57581e-14 3.74399e-13 0)
(2.48689e-13 3.93542e-13 0)
(3.68509e-13 3.14418e-13 0)
(3.783e-13 9.23928e-14 0)
(1.21775e-13 -2.33296e-14 0)
(-1.60508e-13 1.32576e-13 0)
(-5.66817e-14 1.97984e-13 0)
(5.16242e-14 2.08592e-13 0)
(-1.35859e-14 1.89229e-13 0)
(-6.03013e-14 5.62803e-14 0)
(-1.63802e-14 -5.36809e-14 0)
(-1.391e-13 1.11301e-14 0)
(-1.45459e-13 1.24166e-13 0)
(-3.87772e-14 1.49725e-13 0)
(7.38726e-15 2.35119e-13 0)
(2.35916e-15 1.03632e-13 0)
(-5.18993e-14 1.26418e-13 0)
(-6.86005e-14 7.69856e-14 0)
(-1.1493e-13 1.50396e-13 0)
(-6.68189e-14 4.15918e-14 0)
(-7.59326e-14 -1.01403e-13 0)
(-1.10137e-13 -1.399e-13 0)
(-1.57944e-13 1.67804e-14 0)
(-3.45575e-13 2.51318e-13 0)
(-2.55992e-13 3.2438e-13 0)
(-9.02483e-15 3.95495e-13 0)
(8.85092e-14 3.51074e-13 0)
(6.15618e-14 3.89393e-13 0)
(6.99324e-14 3.10678e-13 0)
(3.83987e-14 2.87759e-13 0)
(8.39241e-14 2.97495e-13 0)
(8.50696e-15 2.83073e-13 0)
(-6.31369e-14 2.82768e-13 0)
(9.55114e-15 3.24132e-13 0)
(4.74051e-14 3.53914e-13 0)
(1.62022e-13 2.4403e-13 0)
(1.84054e-13 2.0993e-13 0)
(4.90925e-14 1.48877e-13 0)
(-1.73567e-13 2.48505e-13 0)
(-2.30711e-13 3.3022e-13 0)
(-5.17822e-14 2.55541e-13 0)
(1.64375e-13 1.64061e-13 0)
(9.73349e-14 5.93135e-14 0)
(3.4592e-14 6.32363e-14 0)
(1.48645e-13 -6.68141e-14 0)
(9.07845e-14 -5.59792e-14 0)
(6.35714e-14 -6.39483e-14 0)
(-1.57423e-14 4.24571e-14 0)
(-1.80098e-13 2.46907e-13 0)
(-7.22725e-14 3.19224e-13 0)
(5.89095e-14 4.35529e-13 0)
(2.2534e-13 3.74793e-13 0)
(2.03623e-13 2.49095e-13 0)
(9.80313e-14 1.59963e-13 0)
(-1.12981e-13 8.63675e-14 0)
(-4.08293e-13 2.64777e-13 0)
(-2.88655e-13 4.80049e-13 0)
(-1.14468e-13 4.27311e-13 0)
(1.15972e-13 5.42439e-14 0)
(6.15483e-14 4.64316e-14 0)
(2.54785e-14 2.0638e-13 0)
(-1.21392e-13 1.50677e-13 0)
(-8.19879e-14 7.66941e-14 0)
(7.09764e-14 -1.8592e-14 0)
(3.4348e-13 7.98514e-14 0)
(2.8492e-13 5.10047e-14 0)
(9.41948e-14 -8.19948e-15 0)
(1.26818e-13 7.51144e-14 0)
(1.12597e-13 -3.13832e-14 0)
(-7.31865e-14 -9.83841e-14 0)
(-1.77394e-13 -7.06759e-14 0)
(-1.55685e-13 9.98827e-14 0)
(-1.10221e-13 1.17622e-13 0)
(-7.10981e-14 -3.12379e-15 0)
(3.43248e-15 1.05191e-14 0)
(-6.57951e-14 -3.07227e-14 0)
(-1.31681e-13 -7.68668e-15 0)
(-1.70382e-13 -5.50878e-14 0)
(-1.28946e-13 -4.92933e-14 0)
(-4.00879e-14 -9.7663e-14 0)
(-1.15195e-14 -1.382e-13 0)
(1.02665e-13 -9.84366e-14 0)
(1.05049e-13 -1.59438e-13 0)
(-8.72957e-14 -2.26839e-13 0)
(-1.88816e-13 -2.4153e-13 0)
(-1.68064e-13 -1.71231e-13 0)
(-1.46641e-13 -1.61741e-13 0)
(-9.48829e-14 2.06434e-14 0)
(5.0056e-14 3.51862e-14 0)
(9.66402e-14 1.29846e-14 0)
(2.66158e-13 -8.34765e-15 0)
(2.89999e-13 -1.37789e-13 0)
(3.8786e-14 -1.99499e-13 0)
(4.77452e-14 -1.03691e-13 0)
(9.02236e-14 -1.92267e-13 0)
(-5.59312e-14 -1.00416e-13 0)
(-4.8996e-14 2.251e-14 0)
(-1.12696e-13 1.61506e-13 0)
(-7.19175e-14 7.6775e-14 0)
(1.66599e-13 3.56962e-14 0)
(1.64866e-13 2.14203e-14 0)
(7.56413e-14 2.01549e-13 0)
(-4.9666e-14 1.55573e-13 0)
(2.08658e-14 1.6635e-13 0)
(4.50016e-14 2.29619e-13 0)
(1.3048e-13 2.44419e-13 0)
(1.86489e-13 2.9624e-13 0)
(1.44556e-13 9.52789e-14 0)
(2.31062e-13 5.48931e-14 0)
(7.2733e-14 -1.24835e-13 0)
(4.3287e-14 -6.8886e-14 0)
(2.92287e-13 -1.05909e-13 0)
(2.33652e-13 -3.6071e-14 0)
(-1.24271e-13 2.45391e-14 0)
(-3.22371e-13 2.22179e-13 0)
(-2.63137e-13 2.93757e-13 0)
(-1.21463e-13 2.16817e-13 0)
(-1.15372e-13 1.88107e-13 0)
(-1.2075e-14 3.13532e-13 0)
(1.27199e-13 2.64703e-13 0)
(4.36884e-14 1.29913e-13 0)
(-1.04781e-13 5.57125e-14 0)
(-5.55733e-14 1.92309e-13 0)
(1.28895e-13 1.6877e-13 0)
(1.02609e-13 2.96785e-13 0)
(4.38798e-14 2.62036e-13 0)
(7.54942e-14 1.76142e-13 0)
(1.41222e-13 8.52358e-14 0)
(4.6333e-14 -7.83975e-14 0)
(-3.65678e-14 1.22732e-14 0)
(2.71758e-14 1.04632e-13 0)
(-9.53124e-14 3.7954e-14 0)
(-2.19848e-13 3.9126e-14 0)
(-1.61604e-13 1.77816e-13 0)
(-1.05784e-13 1.11327e-13 0)
(-1.02479e-13 -1.66362e-14 0)
(-1.46304e-14 -1.13336e-13 0)
(1.21159e-13 -3.55924e-14 0)
(1.01334e-13 7.66716e-14 0)
(8.49409e-14 1.54959e-13 0)
(2.28941e-14 1.71149e-13 0)
(-4.24627e-14 1.55576e-13 0)
(-2.94665e-14 1.83999e-13 0)
(-1.61573e-13 2.13344e-13 0)
(-1.66045e-13 2.79092e-13 0)
(2.10942e-15 2.54175e-13 0)
(-9.25082e-14 2.45377e-13 0)
(-6.56395e-14 2.79002e-13 0)
(1.13195e-13 2.63546e-13 0)
(1.02405e-13 2.20501e-13 0)
(6.92879e-14 1.62972e-13 0)
(1.49948e-13 7.78117e-14 0)
(1.49291e-13 -9.36497e-14 0)
(1.76193e-14 -8.1209e-14 0)
(-1.14828e-13 8.34966e-14 0)
(-1.63382e-13 2.92613e-13 0)
(4.93144e-14 2.82945e-13 0)
(1.85478e-14 1.42418e-13 0)
(-7.97638e-14 1.53086e-13 0)
(-8.59636e-15 1.80499e-13 0)
(6.25086e-14 2.02798e-13 0)
(1.37025e-13 1.14465e-13 0)
(5.64691e-14 2.10582e-15 0)
(-4.3e-15 7.44096e-14 0)
(2.22361e-14 2.00585e-13 0)
(-3.1839e-14 1.60891e-13 0)
(9.63727e-14 2.40152e-13 0)
(2.41729e-13 2.50112e-13 0)
(1.88136e-13 1.23379e-13 0)
(1.3566e-13 -2.1325e-16 0)
(1.56787e-13 -1.30867e-13 0)
(-4.02205e-14 -6.86206e-15 0)
(-2.84321e-15 9.18542e-14 0)
(1.28217e-13 6.88439e-14 0)
(-7.41915e-14 9.3831e-14 0)
(-1.62722e-13 -2.37923e-14 0)
(-4.6201e-14 3.23579e-14 0)
(-2.60006e-14 5.00635e-15 0)
(-9.111e-14 1.4653e-13 0)
(-4.5543e-14 2.29001e-13 0)
(-7.82557e-14 2.0897e-13 0)
(-6.76017e-14 1.15612e-13 0)
(-5.08343e-14 4.90085e-14 0)
(-2.89351e-14 4.82374e-14 0)
(-1.08574e-13 -5.5384e-14 0)
(-2.12482e-13 -5.47967e-14 0)
(-2.21118e-13 -1.21196e-13 0)
(-7.23078e-14 -4.84965e-14 0)
(-2.04508e-15 1.66133e-14 0)
(-1.87501e-13 1.43105e-13 0)
(-1.82134e-13 1.94314e-13 0)
(-2.39491e-14 7.57341e-14 0)
(3.46104e-14 8.73599e-14 0)
(-3.77013e-15 1.2884e-13 0)
(-5.66919e-14 1.10618e-13 0)
(3.62528e-14 5.80441e-14 0)
(7.01655e-14 1.64543e-13 0)
(4.22496e-15 1.58321e-13 0)
(3.78065e-14 2.28293e-13 0)
(7.4411e-14 1.86731e-13 0)
(-2.76295e-14 1.42326e-13 0)
(6.89633e-14 1.7774e-13 0)
(1.28535e-13 4.77829e-14 0)
(7.20114e-14 -3.26996e-15 0)
(-5.62543e-16 1.3538e-13 0)
(-2.34092e-13 2.57916e-13 0)
(-1.18751e-13 2.91551e-13 0)
(3.94111e-14 2.12332e-13 0)
(1.31595e-13 3.61353e-14 0)
(-2.84263e-14 -4.35134e-14 0)
(6.04739e-14 -1.2084e-13 0)
(1.28098e-13 -1.31072e-13 0)
(1.07323e-13 -7.15197e-14 0)
(8.45424e-14 5.75455e-14 0)
(-6.23255e-14 2.16856e-13 0)
(2.97419e-14 2.94465e-13 0)
(6.44923e-14 2.26462e-13 0)
(1.02133e-13 1.41344e-13 0)
(5.13112e-14 7.93879e-14 0)
(-3.13934e-14 8.78658e-14 0)
(-4.70951e-14 -3.30489e-14 0)
(-1.88317e-13 1.84784e-13 0)
(-1.9849e-13 3.67983e-13 0)
(-1.27416e-13 3.0536e-13 0)
(4.63853e-14 -5.74112e-14 0)
(1.8481e-13 -9.83383e-14 0)
(2.14646e-13 -7.36385e-14 0)
(-1.67067e-13 -8.47886e-15 0)
(-1.28208e-13 6.82145e-14 0)
(1.54152e-13 3.72146e-14 0)
(3.98442e-13 1.40106e-13 0)
(1.67359e-13 6.35204e-14 0)
(7.71346e-14 -7.99321e-14 0)
(1.27772e-13 -1.17992e-13 0)
(-2.7497e-14 -2.19604e-13 0)
(-1.23711e-13 -2.84526e-13 0)
(-6.90507e-14 -2.80252e-13 0)
(-1.04774e-13 -2.07735e-13 0)
(-1.03707e-13 -2.56901e-13 0)
(-1.90108e-13 -2.85021e-13 0)
(-4.94222e-14 -4.30088e-13 0)
(5.80078e-14 -4.29906e-13 0)
(2.86441e-14 -3.11367e-13 0)
(-9.11335e-14 -1.62931e-13 0)
(-8.79747e-14 -7.57139e-14 0)
(-5.1892e-14 -8.19694e-15 0)
(-8.52097e-14 -7.68111e-14 0)
(-1.08148e-13 -1.53102e-13 0)
(-1.05343e-13 -3.57962e-13 0)
(-7.38992e-14 -4.895e-13 0)
(-2.86174e-14 -4.04366e-13 0)
(-2.7587e-14 -3.48359e-13 0)
(8.73501e-15 -2.19056e-13 0)
(9.66772e-14 -7.70235e-14 0)
(6.8125e-14 1.53566e-14 0)
(6.09045e-15 7.74722e-15 0)
(4.92482e-15 -1.29762e-13 0)
(6.61701e-14 -3.58458e-13 0)
(1.67454e-13 -3.05998e-13 0)
(7.12455e-14 -2.54389e-13 0)
(4.43509e-14 -3.49566e-13 0)
(1.49027e-13 -2.56395e-13 0)
(9.69361e-14 -1.30129e-14 0)
(-3.86108e-14 -5.66514e-14 0)
(-1.40486e-13 2.17356e-14 0)
(3.48897e-14 -1.01353e-13 0)
(2.38493e-13 -1.13135e-13 0)
(2.08523e-13 -9.20881e-14 0)
(1.42256e-14 -8.79967e-14 0)
(5.80799e-14 1.86747e-14 0)
(1.22026e-13 6.61511e-14 0)
(1.43986e-13 2.44168e-13 0)
(2.74704e-14 8.19561e-14 0)
(9.3317e-14 -1.27024e-13 0)
(8.89929e-14 -7.37065e-14 0)
(1.01186e-14 -2.80939e-13 0)
(1.10948e-13 -1.39358e-13 0)
(2.50862e-13 -1.66256e-13 0)
(1.81466e-13 -2.53553e-13 0)
(2.92452e-15 -3.1864e-13 0)
(-1.47115e-13 -7.90079e-14 0)
(-3.63938e-13 1.34887e-13 0)
(-2.61712e-13 3.3628e-14 0)
(8.65621e-15 -6.34149e-14 0)
(1.38387e-13 8.57597e-14 0)
(-2.33497e-14 -4.37209e-14 0)
(-1.21545e-13 -1.30348e-13 0)
(3.26648e-14 -6.42883e-14 0)
(2.7372e-14 2.91759e-14 0)
(9.71989e-14 -3.97337e-14 0)
(2.06608e-13 -3.22375e-14 0)
(5.95073e-14 3.13405e-14 0)
(1.53221e-16 -3.39178e-14 0)
(-3.38802e-14 -1.95311e-13 0)
(1.57099e-14 -1.6026e-13 0)
(3.69649e-14 -2.5894e-13 0)
(-2.28826e-14 -1.31591e-13 0)
(-1.08947e-13 -1.96341e-13 0)
(-2.16253e-15 -1.37586e-13 0)
(-4.53772e-14 3.52688e-15 0)
(-1.6013e-13 -6.34813e-14 0)
(-1.52521e-13 5.51101e-14 0)
(1.76679e-14 -5.25473e-15 0)
(1.6255e-13 4.10091e-14 0)
(6.35378e-14 -3.12018e-14 0)
(4.77145e-14 3.48556e-15 0)
(1.00603e-14 -6.39611e-14 0)
(-2.70755e-14 -1.11118e-13 0)
(-2.78883e-14 -1.39209e-13 0)
(-8.66144e-14 -7.0109e-14 0)
(-1.26701e-13 6.40309e-14 0)
(-1.09863e-13 -2.14144e-14 0)
(-2.6546e-14 2.80928e-14 0)
(-1.73734e-14 9.11601e-14 0)
(-4.29603e-14 8.43665e-14 0)
(1.47898e-14 -7.90649e-15 0)
(1.44894e-13 -7.63682e-14 0)
(1.44336e-13 -1.16291e-13 0)
(1.72765e-14 -3.17225e-13 0)
(3.34617e-14 -2.78054e-13 0)
(6.78479e-14 -1.60026e-13 0)
(6.08905e-14 7.65339e-14 0)
(-9.13757e-14 1.16341e-13 0)
(-8.10282e-15 -4.08972e-14 0)
(-3.66311e-14 3.35939e-15 0)
(-1.9739e-14 -6.37355e-14 0)
(6.40911e-14 -5.44707e-14 0)
(1.75973e-14 -1.45195e-13 0)
(-1.23518e-14 -1.22336e-13 0)
(5.15222e-14 -1.58202e-13 0)
(1.15063e-13 -8.27481e-14 0)
(3.27403e-14 -1.41571e-14 0)
(1.31106e-13 -4.96339e-14 0)
(9.90516e-14 -1.29e-13 0)
(1.16636e-13 -2.27477e-13 0)
(8.3155e-14 -2.78512e-13 0)
(8.13885e-14 -2.77194e-13 0)
(5.40094e-14 -2.88159e-13 0)
(3.59328e-14 -1.80537e-13 0)
(8.94784e-14 -2.4242e-13 0)
(-1.10396e-13 -1.47377e-13 0)
(-8.72355e-14 -8.66415e-14 0)
(-2.13674e-14 -3.90753e-14 0)
(-5.57694e-14 -1.4236e-13 0)
(3.553e-14 -2.82057e-14 0)
(-4.98553e-14 1.05752e-14 0)
(-1.08815e-13 -2.32202e-14 0)
(-1.40543e-13 -7.51539e-15 0)
(-5.88354e-14 -1.84535e-13 0)
(-1.2753e-13 -1.10839e-13 0)
(-2.29091e-13 -2.96159e-13 0)
(-1.46052e-13 -1.97593e-13 0)
(-8.11626e-14 -1.04696e-13 0)
(-2.15328e-14 -1.29285e-13 0)
(-8.19714e-14 -1.98069e-13 0)
(-1.42375e-13 -1.49406e-13 0)
(-2.91301e-13 -1.20581e-13 0)
(-1.51475e-13 -2.74877e-13 0)
(1.08637e-13 -2.62033e-13 0)
(6.18361e-14 -2.14973e-13 0)
(-2.47888e-14 -1.62128e-13 0)
(8.50719e-14 -2.07874e-13 0)
(1.6147e-13 -1.55576e-13 0)
(9.14184e-14 -6.22277e-14 0)
(9.2524e-15 -5.46706e-14 0)
(-1.23124e-14 -1.50942e-13 0)
(4.00601e-14 -2.00914e-13 0)
(4.02112e-14 -1.12123e-13 0)
(-4.57113e-14 -2.07485e-13 0)
(4.65571e-14 -1.59381e-13 0)
(1.23011e-13 -1.96631e-13 0)
(-6.35366e-14 -3.13906e-14 0)
(-6.96069e-14 1.64779e-13 0)
(-4.34768e-14 1.15319e-13 0)
(-1.0013e-13 -3.39264e-14 0)
(-9.43294e-14 -2.46113e-13 0)
(2.73389e-14 -1.50266e-13 0)
(1.26827e-13 -2.33771e-13 0)
(2.24919e-13 -1.54365e-13 0)
(1.96008e-13 -7.50074e-14 0)
(5.52089e-14 4.50496e-14 0)
(-5.77383e-14 1.77752e-13 0)
(-1.23406e-13 4.53047e-14 0)
(5.81071e-14 -7.81779e-14 0)
(1.15663e-13 -1.65494e-13 0)
(-6.35782e-14 -1.78378e-13 0)
(-2.09997e-14 -2.04047e-13 0)
(-2.87713e-14 -1.23636e-13 0)
(-1.73453e-13 -1.2023e-14 0)
(-1.25825e-13 -4.84818e-14 0)
(1.23725e-13 5.23298e-14 0)
(7.78179e-14 4.98852e-14 0)
(1.81398e-13 -6.14792e-14 0)
(4.87535e-14 3.99971e-14 0)
(-7.71785e-14 1.81807e-13 0)
(1.07554e-13 2.21631e-13 0)
(3.11926e-13 1.01989e-13 0)
(8.26309e-14 5.87539e-15 0)
(-4.40013e-15 8.11055e-14 0)
(-2.48019e-14 -7.02284e-14 0)
(-1.44482e-13 -2.23786e-13 0)
(-1.61022e-13 -3.249e-13 0)
(-6.13371e-14 -2.30108e-13 0)
(-1.15985e-13 -2.54589e-13 0)
(-1.90043e-13 -3.6455e-13 0)
(-2.87135e-13 -3.58795e-13 0)
(-9.76468e-14 -2.93033e-13 0)
(5.93109e-14 -3.10928e-13 0)
(1.01484e-13 -3.7555e-13 0)
(6.47258e-14 -3.16425e-13 0)
(-3.19885e-14 -2.65219e-13 0)
(-8.87246e-14 -2.54762e-13 0)
(-1.32271e-13 -2.06147e-13 0)
(-1.15705e-13 -2.10528e-13 0)
(-1.65757e-13 -2.14931e-13 0)
(-5.5116e-14 -1.99393e-13 0)
(-4.25989e-14 -1.96059e-13 0)
(-2.28677e-15 -3.12018e-13 0)
(1.19071e-13 -1.78098e-13 0)
(1.2135e-13 -2.03431e-13 0)
(1.09975e-13 -1.28213e-13 0)
(-5.45481e-15 -1.01457e-13 0)
(-6.83338e-14 -3.72919e-14 0)
(8.33989e-14 -6.40478e-14 0)
(1.7433e-13 -9.83846e-14 0)
(-4.44904e-15 -3.14663e-13 0)
(6.78334e-14 -1.65328e-13 0)
(3.06686e-13 -1.50189e-13 0)
(1.53798e-13 -1.04808e-13 0)
(-9.27596e-14 -2.06787e-13 0)
(-8.52856e-14 -5.15656e-14 0)
(6.22703e-14 4.01581e-14 0)
(1.94779e-13 1.81534e-14 0)
(1.11682e-13 -8.21431e-14 0)
(4.14576e-14 6.98447e-15 0)
(1.27823e-13 6.20886e-14 0)
(2.13564e-13 3.4817e-14 0)
(1.38228e-13 -4.08037e-15 0)
(-1.38036e-13 -1.25337e-13 0)
(1.38879e-14 -1.42375e-13 0)
(7.77576e-14 -1.72967e-13 0)
(3.73825e-14 -1.22817e-13 0)
(1.18256e-13 -6.87667e-14 0)
(1.92986e-13 -2.51979e-14 0)
(1.42729e-13 -4.82899e-14 0)
(5.88399e-14 -8.77084e-14 0)
(7.18584e-14 -1.40145e-13 0)
(-1.89967e-13 -4.49473e-14 0)
(-3.12185e-13 4.2027e-14 0)
(-8.22898e-14 -9.63884e-15 0)
(1.31939e-14 -9.65595e-14 0)
(-1.17427e-13 -1.44926e-13 0)
(1.83807e-14 -2.31561e-14 0)
(4.62199e-14 3.48285e-14 0)
(3.30938e-14 -9.26503e-14 0)
(1.16731e-13 -3.80974e-14 0)
(1.84082e-13 -1.36918e-13 0)
(9.58697e-14 -7.05489e-14 0)
(-1.5797e-13 -1.53988e-13 0)
(-4.32765e-14 -1.26694e-13 0)
(-6.97394e-14 -1.82039e-13 0)
(5.69117e-16 -2.13437e-13 0)
(7.61124e-14 -2.51006e-13 0)
(-1.28245e-13 -2.37142e-13 0)
(-6.16549e-15 -2.07451e-13 0)
(-5.1285e-14 -1.93767e-13 0)
(-3.431e-14 -1.8045e-13 0)
(-3.91874e-14 -1.25964e-13 0)
(-3.1039e-14 -1.38316e-14 0)
(9.5137e-14 -1.28e-13 0)
(1.20872e-13 -1.14055e-13 0)
(8.86764e-14 2.9527e-14 0)
(-9.28702e-14 2.05675e-14 0)
(-1.16143e-13 -6.86322e-14 0)
(1.18023e-14 -1.47624e-13 0)
(-2.31594e-14 -1.00021e-13 0)
(-1.28423e-13 -5.40569e-14 0)
(-6.97167e-15 1.36089e-14 0)
(1.58725e-14 2.23988e-14 0)
(-6.88659e-15 3.75038e-14 0)
(5.09554e-14 9.4383e-14 0)
(-1.16734e-14 1.36107e-13 0)
(2.07064e-14 3.64679e-14 0)
(-7.62122e-14 -1.75823e-13 0)
(-4.22352e-14 -2.1979e-13 0)
(1.52712e-13 -2.44302e-13 0)
(2.18616e-13 -7.57078e-14 0)
(1.27654e-13 -1.09824e-13 0)
(-7.18638e-14 -1.65736e-13 0)
(-1.0067e-13 -4.33023e-14 0)
(-7.67685e-14 -2.33631e-13 0)
(1.18108e-14 -1.77638e-13 0)
(-1.66977e-14 -1.68947e-13 0)
(2.77076e-14 -1.53438e-14 0)
(3.09053e-14 9.44292e-16 0)
(8.43443e-14 5.06443e-14 0)
(2.13137e-13 -7.81461e-14 0)
(2.1291e-14 -4.82213e-14 0)
(-6.64047e-14 -1.29809e-13 0)
(2.0677e-14 -2.49248e-13 0)
(2.95189e-14 -2.78483e-13 0)
(5.74075e-14 -3.33522e-13 0)
(1.14951e-13 -3.14055e-13 0)
(1.01722e-13 -3.32022e-13 0)
(3.45462e-14 -2.86754e-13 0)
(1.28705e-13 -2.81912e-13 0)
(5.97632e-14 -2.68569e-13 0)
(-3.56892e-14 -1.21067e-13 0)
(-1.29151e-13 -1.56924e-13 0)
(-4.88494e-14 -1.22685e-13 0)
(8.86021e-14 -2.67685e-13 0)
(1.49011e-14 -2.02312e-13 0)
(-6.88679e-14 -2.59272e-13 0)
(-2.08072e-13 -2.8902e-13 0)
(-1.5182e-13 -2.55275e-13 0)
(-1.22322e-13 -3.29045e-13 0)
(-1.70614e-13 -1.5534e-13 0)
(-4.05051e-14 -6.81957e-14 0)
(-1.56559e-13 -5.35838e-14 0)
(-1.11266e-13 -2.14284e-13 0)
(-2.04661e-14 -2.25286e-13 0)
(-9.60806e-14 -2.38692e-13 0)
(-2.76807e-13 -1.8139e-13 0)
(-1.62618e-13 -1.45111e-13 0)
(5.93892e-14 -2.22452e-13 0)
(7.08198e-14 -2.37973e-13 0)
(8.79391e-15 -9.9866e-14 0)
(6.56153e-14 -5.07061e-14 0)
(1.8996e-13 -2.26256e-13 0)
(1.25202e-13 -2.52629e-13 0)
(9.95432e-15 -2.03725e-13 0)
(-2.95233e-14 -1.32626e-13 0)
(3.4468e-14 -1.39758e-13 0)
(4.72527e-14 -1.81246e-13 0)
(-2.38972e-14 -1.84106e-13 0)
(-7.23931e-15 -2.30065e-13 0)
(6.21245e-14 -2.24859e-13 0)
(1.12892e-13 -2.24608e-13 0)
(-1.55475e-14 -2.72605e-13 0)
(-1.0212e-13 -2.45494e-13 0)
(-1.68006e-13 -2.55885e-13 0)
(-7.9988e-14 -1.52133e-13 0)
(6.70798e-14 -1.55637e-13 0)
(1.02358e-13 -1.22429e-13 0)
(2.58428e-13 -2.10913e-13 0)
(3.11029e-13 -1.46385e-13 0)
(2.22447e-13 -8.40418e-14 0)
(2.97004e-14 -3.95409e-14 0)
(-1.13817e-13 -3.78501e-14 0)
(-1.07366e-13 -1.36525e-14 0)
(-7.56586e-14 -2.31642e-13 0)
(-8.56754e-14 -2.90598e-13 0)
(-3.52074e-15 -2.27661e-13 0)
(4.19427e-14 -2.86795e-13 0)
(-6.11551e-14 -2.34006e-13 0)
(-8.15093e-14 -1.68768e-13 0)
(1.78794e-13 -1.83709e-13 0)
(9.974e-14 -9.99084e-14 0)
(1.65169e-13 -1.87311e-13 0)
(1.37017e-13 -2.52895e-13 0)
(5.75256e-14 -9.86507e-14 0)
(9.64587e-14 2.63741e-14 0)
(1.67298e-13 -1.53846e-13 0)
(1.67129e-13 -1.28428e-13 0)
(3.3124e-14 -1.26056e-14 0)
(-2.04841e-13 -1.50804e-15 0)
(-3.23354e-13 -2.11105e-13 0)
(-1.29357e-13 -2.64908e-13 0)
(-3.09778e-14 -2.54407e-13 0)
(-1.98419e-13 -2.87723e-13 0)
(-2.17614e-13 -2.65926e-13 0)
(-9.88641e-14 -2.26483e-13 0)
(-2.32945e-14 -1.27119e-13 0)
(-2.15846e-14 -1.7595e-13 0)
(2.09526e-15 -2.51742e-13 0)
(3.29997e-14 -3.00048e-13 0)
(-1.16915e-15 -2.41487e-13 0)
(-9.87942e-15 -3.85584e-13 0)
(-2.9211e-14 -2.67518e-13 0)
(-1.2066e-13 -1.69785e-13 0)
(-1.0617e-13 -1.14787e-13 0)
(-6.59887e-14 -4.46056e-14 0)
(-1.45124e-13 -2.66329e-14 0)
(-2.22328e-15 -7.10302e-14 0)
(1.9836e-13 -1.70014e-13 0)
(1.37727e-13 -6.34106e-14 0)
(1.31907e-13 -1.07052e-13 0)
(6.3849e-14 -6.7004e-14 0)
(-2.5816e-15 -9.02544e-14 0)
(-5.08552e-16 -9.695e-14 0)
(-3.5821e-14 -2.15553e-13 0)
(-3.23702e-14 -2.51931e-13 0)
(1.64722e-13 -1.42562e-13 0)
(2.17021e-13 -2.18897e-13 0)
(9.26259e-14 -2.20004e-13 0)
(6.24588e-14 -2.06959e-13 0)
(6.7881e-14 -9.43453e-14 0)
(4.65915e-14 -1.73028e-13 0)
(1.02365e-13 -9.44925e-14 0)
(2.03415e-13 -1.15076e-13 0)
(1.64104e-13 -3.04687e-14 0)
(1.05125e-13 -4.32123e-14 0)
(9.83174e-14 -2.01365e-14 0)
(-9.16091e-16 -1.10457e-13 0)
(-9.99804e-14 -6.39119e-14 0)
(3.12678e-14 4.0213e-14 0)
(7.78331e-14 -1.05975e-13 0)
(6.27687e-14 4.43146e-14 0)
(1.64931e-13 -8.94706e-14 0)
(2.42771e-13 -8.64925e-14 0)
(1.36788e-13 -8.50683e-14 0)
(-8.76279e-15 -1.31526e-13 0)
(-8.9002e-14 -1.72975e-13 0)
(-1.53454e-13 -2.93809e-13 0)
(-2.70051e-13 -1.84607e-13 0)
(-1.04157e-13 -2.1436e-13 0)
(-4.8045e-14 -2.09656e-13 0)
(-1.53695e-14 -1.5927e-13 0)
(7.22333e-14 -1.59733e-13 0)
(-1.87045e-14 -1.91425e-13 0)
(-9.39491e-15 -2.51319e-13 0)
(8.85169e-14 -1.96424e-13 0)
(2.27726e-13 -3.01709e-13 0)
(3.74954e-14 -2.50139e-13 0)
(-9.80205e-14 -2.44499e-13 0)
(-5.16093e-14 -2.05862e-13 0)
(-8.5581e-14 -2.41297e-13 0)
(-9.54797e-15 -2.50094e-13 0)
(-3.73197e-14 -3.19809e-13 0)
(-6.37115e-14 -2.22226e-13 0)
(6.42256e-14 -1.35819e-13 0)
(-1.5691e-15 -1.75377e-13 0)
(-5.81383e-14 -1.02159e-13 0)
(3.11386e-14 -2.28608e-13 0)
(-2.83234e-14 -1.2016e-13 0)
(1.08737e-14 -6.36889e-14 0)
(1.99707e-13 -8.41009e-14 0)
(1.52748e-13 -6.03196e-14 0)
(-8.29908e-14 -1.39697e-13 0)
(-2.20135e-13 -8.4307e-14 0)
(-4.02917e-14 -1.9141e-13 0)
(4.61982e-14 -1.31592e-13 0)
(-1.21018e-14 -1.21427e-13 0)
(-6.86451e-14 -1.2037e-13 0)
(-1.56438e-14 -1.4746e-13 0)
(1.16905e-14 -1.59814e-13 0)
(3.48559e-14 -1.2826e-13 0)
(-1.72811e-14 -1.63861e-13 0)
(-1.27676e-13 -9.65084e-14 0)
(-1.06203e-13 -1.78204e-13 0)
(-4.39322e-14 -4.24893e-14 0)
(1.68777e-13 -1.38819e-13 0)
(2.576e-13 -1.56554e-13 0)
(1.58956e-15 -1.96024e-13 0)
(-1.93136e-14 -1.86628e-13 0)
(-5.93293e-14 -5.99616e-14 0)
(-1.80793e-13 -1.19555e-13 0)
(1.9842e-14 -6.54599e-14 0)
(2.01293e-13 -1.23535e-13 0)
(1.58987e-13 -4.20734e-14 0)
(8.39889e-14 5.98092e-15 0)
(-1.64575e-14 -4.19058e-14 0)
(-1.55688e-14 -2.02286e-13 0)
(-9.10128e-15 -3.15744e-13 0)
(-8.19156e-14 -2.5562e-13 0)
(-4.89405e-14 -3.37975e-13 0)
(3.56507e-15 -2.99471e-13 0)
(4.10713e-14 -3.13075e-13 0)
(6.91055e-14 -3.82373e-13 0)
(1.23426e-13 -4.04682e-13 0)
(1.12144e-13 -3.27856e-13 0)
(7.64414e-14 -2.42296e-13 0)
(4.71615e-14 -3.56356e-13 0)
(2.31324e-14 -2.41041e-13 0)
(-4.47078e-14 -2.08247e-13 0)
(-1.69177e-13 -2.38605e-13 0)
(-3.98497e-14 -3.33116e-13 0)
(-3.3352e-14 -4.08487e-13 0)
(-1.40342e-13 -3.37289e-13 0)
(-8.03703e-14 -2.69499e-13 0)
(-1.26976e-13 -7.37901e-14 0)
(-7.00944e-14 -1.68741e-13 0)
(-5.38221e-15 -7.55184e-14 0)
(-4.53121e-14 -1.63528e-13 0)
(-1.56661e-13 -1.91967e-13 0)
(-1.76507e-13 -1.18215e-13 0)
(-1.0478e-13 -1.6817e-13 0)
(-8.68394e-14 -1.92278e-13 0)
(-1.91705e-13 -2.22342e-13 0)
(-2.15068e-13 -1.02472e-13 0)
(-2.07192e-14 -2.33997e-13 0)
(2.21013e-13 -2.0386e-13 0)
(1.92467e-13 -7.63236e-14 0)
(-4.78495e-14 -3.55906e-14 0)
(-2.19594e-15 -1.78733e-13 0)
(1.78972e-13 -3.99245e-13 0)
(1.19517e-13 -2.91874e-13 0)
(-2.32578e-14 -2.39727e-13 0)
(1.93568e-14 -5.82514e-14 0)
(9.62638e-16 -1.57126e-13 0)
(-7.13231e-14 -1.03319e-13 0)
(-1.16278e-14 -1.70479e-13 0)
(9.32805e-14 -1.77838e-13 0)
(-2.15135e-14 -1.7616e-13 0)
(-5.97671e-14 -2.33506e-13 0)
(-6.2402e-14 -1.66014e-13 0)
(-2.43098e-14 -1.45878e-13 0)
(-2.14643e-14 3.91547e-14 0)
(3.74536e-14 -1.06284e-13 0)
(7.2711e-14 -1.6124e-13 0)
(2.21408e-13 -1.63664e-13 0)
(3.14637e-13 -2.54775e-13 0)
(1.65995e-13 -3.01012e-13 0)
(7.84435e-16 -3.89495e-13 0)
(-7.89352e-14 -2.96831e-13 0)
(-1.40434e-13 -3.20899e-13 0)
(-1.6375e-13 -3.39102e-13 0)
(-3.91e-14 -2.96539e-13 0)
(1.34577e-14 -3.36753e-13 0)
(3.07614e-14 -2.75223e-13 0)
(9.4497e-15 -3.53943e-13 0)
(3.23019e-14 -2.2549e-13 0)
(3.30079e-13 -4.65555e-13 0)
(9.53995e-14 -4.56829e-13 0)
(-1.07659e-15 -4.24445e-13 0)
(2.03346e-13 -4.77673e-13 0)
(2.70053e-13 -3.25813e-13 0)
(5.93509e-14 -2.90885e-13 0)
(1.2095e-13 -2.24829e-13 0)
(2.32158e-13 -2.97171e-13 0)
(8.58151e-14 -2.56083e-13 0)
(-2.21216e-13 -1.62592e-13 0)
(-4.23877e-13 -1.39052e-13 0)
(-2.24315e-13 -1.7168e-13 0)
(-9.66936e-14 -3.51205e-13 0)
(-1.18206e-13 -2.73616e-13 0)
(-1.33305e-13 -2.99446e-13 0)
(-8.51796e-14 -2.17161e-13 0)
(-4.77653e-14 -2.39986e-13 0)
(-3.76032e-14 -2.80579e-13 0)
(-2.2374e-14 -2.35678e-13 0)
(6.42243e-14 -3.37749e-13 0)
(-6.21397e-14 -3.09734e-13 0)
(-9.26761e-14 -3.58906e-13 0)
(5.62652e-14 -3.65851e-13 0)
(-2.24654e-14 -2.67764e-13 0)
(-9.82181e-14 -1.77369e-13 0)
(-3.66906e-14 -2.02646e-13 0)
(-9.05934e-14 -1.38504e-13 0)
(-9.95409e-14 3.17308e-15 0)
(1.23137e-13 -1.39357e-13 0)
(1.56618e-13 -2.42689e-13 0)
(1.02621e-13 -1.84898e-13 0)
(2.81289e-14 -2.59418e-13 0)
(-6.09771e-14 -2.98539e-13 0)
(-4.68297e-14 -3.3627e-13 0)
(8.18018e-16 -3.25399e-13 0)
(5.26077e-14 -2.10387e-13 0)
(1.17356e-13 -2.80665e-13 0)
(1.9826e-13 -3.83322e-13 0)
(1.57984e-13 -3.56117e-13 0)
(1.15679e-13 -2.56224e-13 0)
(-2.03336e-15 -1.67338e-13 0)
(1.23851e-14 -2.79129e-13 0)
(2.07713e-13 -2.87997e-13 0)
(1.46741e-13 -2.44528e-13 0)
(1.09961e-13 -2.86046e-13 0)
(1.12155e-13 -2.21098e-13 0)
(1.60969e-13 -1.64068e-13 0)
(5.3868e-14 -1.56509e-13 0)
(1.65173e-14 -4.72364e-14 0)
(-3.73194e-14 -4.61529e-14 0)
(5.51636e-14 -1.28273e-13 0)
(8.34997e-14 -1.18018e-13 0)
(2.90334e-14 -1.719e-13 0)
(1.50836e-13 -2.46625e-13 0)
(6.01258e-14 -3.01188e-13 0)
(1.64916e-14 -3.16722e-13 0)
(-8.0235e-14 -2.48734e-13 0)
(-1.56626e-13 -3.11549e-13 0)
(-1.9336e-13 -2.70448e-13 0)
(-1.22834e-13 -2.30436e-13 0)
(3.86435e-14 -3.46374e-13 0)
(-7.28154e-14 -2.81117e-13 0)
(-1.35961e-14 -4.05672e-13 0)
(-2.55279e-14 -4.07388e-13 0)
(-2.76728e-14 -3.47147e-13 0)
(6.52584e-14 -2.8246e-13 0)
(1.90698e-13 -2.49225e-13 0)
(1.22287e-13 -2.99276e-13 0)
(-1.3303e-13 -2.80314e-13 0)
(-2.77324e-14 -3.32161e-13 0)
(-6.6207e-14 -2.8135e-13 0)
(-5.45847e-14 -2.51253e-13 0)
(8.31151e-14 -1.82626e-13 0)
(3.36969e-14 -1.34369e-13 0)
(1.13297e-14 -1.79795e-13 0)
(3.47475e-14 -2.18914e-13 0)
(-5.0266e-14 -1.43087e-13 0)
(-3.88145e-14 -7.32877e-14 0)
(1.24122e-13 -1.14396e-13 0)
(4.43199e-14 -4.12159e-14 0)
(1.46833e-13 -1.16918e-13 0)
(4.78808e-14 -1.39385e-13 0)
(-1.20393e-13 -2.26733e-13 0)
(-1.9691e-13 -2.02618e-13 0)
(-8.42696e-14 -1.81108e-13 0)
(7.10074e-14 -2.31948e-13 0)
(-6.1944e-14 -2.7063e-13 0)
(-4.13391e-14 -2.82115e-13 0)
(-6.40073e-14 -2.39526e-13 0)
(-3.02425e-14 -2.39002e-13 0)
(3.01325e-14 -2.49966e-13 0)
(5.79377e-14 -2.57073e-13 0)
(-3.78794e-14 -2.49303e-13 0)
(-8.00954e-14 -1.85186e-13 0)
(-2.66501e-15 -1.65148e-13 0)
(6.4055e-14 -7.60876e-14 0)
(1.76633e-13 -1.88408e-13 0)
(9.63932e-14 -2.23929e-13 0)
(4.9624e-14 -7.10388e-14 0)
(-6.41961e-14 -7.61209e-14 0)
(-1.01192e-13 9.68812e-15 0)
(1.03251e-14 3.29365e-14 0)
(5.34036e-14 5.65722e-14 0)
(1.75439e-13 -9.28073e-14 0)
(3.89453e-14 -2.09635e-13 0)
(-1.32683e-13 -2.46749e-13 0)
(-1.15156e-13 -1.87576e-13 0)
(-3.31596e-14 -2.94937e-13 0)
(-9.271e-14 -3.43397e-13 0)
(-3.79212e-14 -3.64089e-13 0)
(6.80682e-14 -4.08059e-13 0)
(-1.8503e-14 -4.52342e-13 0)
(3.62614e-14 -4.33121e-13 0)
(1.7128e-13 -3.76041e-13 0)
(2.309e-13 -3.34224e-13 0)
(5.48617e-14 -3.38941e-13 0)
(4.59652e-14 -3.60705e-13 0)
(1.17289e-13 -3.31356e-13 0)
(-1.27718e-13 -2.58238e-13 0)
(-1.59712e-13 -3.72327e-13 0)
(-6.98442e-14 -2.89035e-13 0)
(1.30321e-14 -3.69997e-13 0)
(4.62196e-14 -2.51282e-13 0)
(-4.6686e-15 -1.74543e-13 0)
(-1.01506e-13 -1.11198e-13 0)
(-1.47591e-13 -8.26877e-14 0)
(-1.0306e-13 -1.12389e-13 0)
(-1.45347e-13 -1.45061e-13 0)
(-5.36846e-14 -2.43733e-13 0)
(-1.3754e-13 -1.92715e-13 0)
(-8.64717e-14 -2.16462e-13 0)
(-1.27751e-13 -1.25304e-13 0)
(-2.32345e-13 -1.35673e-13 0)
(-2.02239e-13 -1.5807e-13 0)
(-4.82539e-14 -1.83424e-13 0)
(2.43845e-13 -2.94349e-13 0)
(1.69916e-13 -4.34702e-13 0)
(-1.18116e-14 -3.59376e-13 0)
(-9.95218e-14 -3.17035e-13 0)
(3.84223e-14 -3.50607e-13 0)
(1.15308e-13 -3.60649e-13 0)
(1.73775e-13 -3.66989e-13 0)
(1.387e-13 -2.13825e-13 0)
(1.51927e-14 -1.92024e-13 0)
(-1.1383e-14 -1.15961e-13 0)
(-9.07091e-14 -1.06372e-13 0)
(5.91477e-14 -2.14003e-13 0)
(3.7684e-14 -1.16965e-13 0)
(-3.43794e-14 -4.30828e-14 0)
(-1.18757e-15 -7.30751e-14 0)
(9.56156e-15 -4.59005e-14 0)
(-4.7941e-14 -1.03657e-13 0)
(-8.32231e-14 -1.41844e-13 0)
(8.46625e-14 -2.63774e-13 0)
(1.60168e-13 -2.01848e-13 0)
(1.94196e-13 -2.46543e-13 0)
(6.09742e-14 -3.48765e-13 0)
(4.04701e-14 -4.32717e-13 0)
(-8.71113e-14 -4.13285e-13 0)
(-2.06085e-13 -3.89357e-13 0)
(-9.12614e-14 -3.3019e-13 0)
(-5.02491e-14 -3.7403e-13 0)
(7.55987e-14 -3.74061e-13 0)
(3.82652e-14 -3.22643e-13 0)
(1.12716e-15 -2.98034e-13 0)
(1.07415e-13 -2.52944e-13 0)
(2.63365e-13 -4.11973e-13 0)
(1.48761e-13 -4.22425e-13 0)
(1.20601e-13 -3.76817e-13 0)
(2.45955e-13 -2.70241e-13 0)
(2.44677e-13 -2.75708e-13 0)
(1.73001e-13 -2.54932e-13 0)
(1.32182e-13 -2.35969e-13 0)
(1.26368e-13 -2.72445e-13 0)
(1.06288e-13 -2.44941e-13 0)
(-1.25219e-13 -3.01405e-13 0)
(-3.15908e-13 -1.73999e-13 0)
(-2.89492e-13 -1.75207e-13 0)
(-1.10741e-13 -2.29999e-13 0)
(-1.90988e-13 -2.51559e-13 0)
(-1.39726e-13 -3.03076e-13 0)
(-2.72099e-17 -2.34438e-13 0)
(-6.45836e-14 -1.91023e-13 0)