/*--------------------------------*- C++ -*----------------------------------*\
  =========                 |
  \\      /  F ield         | OpenFOAM: The Open Source CFD Toolbox
   \\    /   O peration     | Website:  https://openfoam.org
    \\  /    A nd           | Version:  13
     \\/     M anipulation  |
\*---------------------------------------------------------------------------*/
FoamFile
{
    format      ascii;
    class       volVectorField;
    location    "0.0011";
    object      U;
}
// * * * * * * * * * * * * * * * * * * * * * * * * * * * * * * * * * * * * * //

dimensions      [0 1 -1 0 0 0 0];

internalField   nonuniform List<vector> 
33333
(
(1.42595e-13 -7.01797e-14 0)
(1.15029e-13 -9.81326e-14 0)
(1.29202e-13 -1.31195e-13 0)
(1.43909e-13 -1.34976e-13 0)
(2.55423e-14 -9.26052e-14 0)
(-4.14779e-14 8.09982e-14 0)
(5.01624e-14 1.4686e-13 0)
(2.41735e-15 -1.95355e-15 0)
(-1.11171e-13 -9.06342e-15 0)
(-1.1216e-15 2.02706e-14 0)
(6.66998e-14 2.96055e-14 0)
(3.29601e-14 -2.9521e-14 0)
(8.76794e-15 -1.01971e-13 0)
(-1.53066e-13 -1.73243e-13 0)
(-1.84215e-13 -7.64761e-14 0)
(-5.31796e-14 -8.09084e-14 0)
(-1.43801e-13 -1.91425e-13 0)
(-4.55715e-14 -2.80449e-13 0)
(-3.69655e-14 -2.46556e-13 0)
(-1.82615e-14 -2.60654e-13 0)
(1.94443e-14 -1.93487e-13 0)
(8.25183e-14 -1.21178e-14 0)
(1.41546e-13 -6.27886e-14 0)
(1.99347e-13 -2.33122e-14 0)
(2.76455e-13 -1.48419e-13 0)
(2.038e-13 -1.15255e-13 0)
(1.18684e-13 -1.52798e-13 0)
(-2.12407e-14 -1.2687e-13 0)
(-4.21879e-15 -1.51133e-13 0)
(5.07724e-14 -2.03016e-13 0)
(-1.9729e-14 -6.73607e-14 0)
(-7.4034e-14 5.00617e-14 0)
(7.2765e-14 -1.02562e-14 0)
(-4.12597e-14 -2.58482e-14 0)
(-7.37777e-14 -7.70828e-16 0)
(-8.2182e-14 -4.64001e-14 0)
(-1.86272e-14 -6.45456e-14 0)
(-7.11084e-14 -1.09956e-13 0)
(-2.32703e-13 -9.15713e-14 0)
(-1.33045e-13 5.23331e-14 0)
(3.47885e-14 1.00036e-13 0)
(2.3183e-14 2.28238e-14 0)
(5.07262e-14 1.01669e-14 0)
(1.25302e-13 -1.21958e-13 0)
(1.00323e-13 -1.56507e-13 0)
(1.04857e-13 -2.19181e-13 0)
(1.86126e-14 -1.70724e-13 0)
(-1.23242e-13 -1.24057e-13 0)
(-8.48995e-14 2.71198e-14 0)
(6.10801e-14 -8.0775e-14 0)
(1.34534e-13 -6.21351e-14 0)
(7.71788e-14 -6.78621e-14 0)
(-3.77573e-14 -7.01087e-14 0)
(-8.00243e-14 -6.64285e-14 0)
(-2.44913e-14 -7.39363e-14 0)
(-8.62027e-14 -5.40503e-15 0)
(-1.74189e-14 6.94563e-14 0)
(7.24048e-14 3.90136e-14 0)
(-9.43725e-14 -2.3137e-14 0)
(-1.00348e-13 -2.96678e-14 0)
(-3.41385e-14 -1.10986e-13 0)
(-6.59301e-14 -1.4038e-13 0)
(-5.8081e-14 -1.42936e-13 0)
(-1.52538e-13 -1.42457e-13 0)
(-8.21369e-14 -8.38493e-14 0)
(1.08952e-13 -3.20182e-14 0)
(8.69627e-14 -1.37022e-13 0)
(-2.94049e-14 -1.63373e-13 0)
(-8.93969e-14 -1.18286e-13 0)
(-2.39092e-14 -9.9727e-14 0)
(-1.46475e-14 -1.01597e-13 0)
(7.13132e-14 -9.46875e-15 0)
(1.9429e-13 -3.99765e-14 0)
(2.06665e-13 5.60529e-14 0)
(1.31213e-13 -4.75476e-14 0)
(-6.73991e-14 -6.44686e-14 0)
(-1.01988e-13 2.75502e-14 0)
(5.65159e-14 -3.66555e-15 0)
(2.0853e-13 -2.65052e-14 0)
(1.87858e-13 -1.07517e-13 0)
(1.36911e-14 -8.38796e-14 0)
(-6.77872e-14 -4.89263e-14 0)
(-3.08556e-15 -1.5764e-13 0)
(-3.30783e-14 -1.26354e-13 0)
(-2.75921e-14 -6.64547e-14 0)
(2.95843e-14 -6.81495e-14 0)
(-5.43447e-14 -1.65053e-13 0)
(-2.36996e-13 -1.8258e-13 0)
(-3.45206e-13 -1.62222e-13 0)
(-3.10852e-13 -4.16837e-14 0)
(3.4853e-14 3.35286e-14 0)
(7.98697e-14 -3.28285e-14 0)
(1.34242e-14 -1.19858e-13 0)
(-3.93274e-14 -1.43158e-13 0)
(-3.10211e-14 -1.06684e-13 0)
(-1.21279e-14 -7.24083e-14 0)
(-8.39294e-15 -1.34466e-15 0)
(4.22166e-14 -5.41121e-14 0)
(1.54391e-13 -3.91715e-14 0)
(1.79616e-13 -8.10479e-14 0)
(2.27438e-14 -1.11235e-13 0)
(-4.44208e-14 -1.75354e-13 0)
(-8.78955e-14 -1.52549e-13 0)
(2.83113e-14 -1.09922e-13 0)
(5.4332e-14 -1.98603e-13 0)
(-9.28909e-14 -2.28677e-13 0)
(-4.42632e-14 -7.02654e-14 0)
(2.56882e-14 -4.17301e-14 0)
(-5.48855e-14 -6.67388e-14 0)
(-1.12977e-13 -6.49915e-14 0)
(-3.60583e-14 -1.44603e-13 0)
(1.19073e-13 -1.54651e-13 0)
(1.11258e-13 -1.51628e-13 0)
(7.26057e-15 -1.53424e-13 0)
(1.34696e-13 -1.14484e-13 0)
(3.23643e-13 -3.74871e-14 0)
(2.2466e-13 -1.0473e-13 0)
(8.85663e-14 -1.24115e-13 0)
(7.33913e-15 -1.53778e-13 0)
(-8.39436e-14 -1.33629e-13 0)
(-7.20275e-14 -2.04667e-13 0)
(-9.06929e-14 -2.2612e-13 0)
(-6.16866e-14 -1.18106e-13 0)
(-5.87542e-14 -2.46496e-15 0)
(-1.69624e-13 -1.09728e-13 0)
(-2.92598e-13 -1.30143e-13 0)
(-2.68437e-13 -3.92341e-14 0)
(-9.18066e-14 -4.95853e-14 0)
(1.16467e-13 -1.89141e-13 0)
(-3.63549e-15 -1.34939e-13 0)
(1.85561e-14 -7.33861e-14 0)
(3.86488e-14 -8.50417e-14 0)
(1.2834e-14 -5.24352e-14 0)
(1.91371e-13 -4.92815e-14 0)
(8.82895e-14 -1.12205e-13 0)
(-9.67476e-14 -9.03079e-14 0)
(-7.89894e-14 -6.17683e-14 0)
(-1.09237e-13 -9.91953e-14 0)
(-1.70307e-13 -1.55623e-13 0)
(-7.81616e-14 -1.6175e-13 0)
(-7.47889e-14 -2.22193e-13 0)
(-1.69845e-13 -1.6322e-13 0)
(-2.07471e-13 -1.4945e-13 0)
(-2.49312e-13 -1.55978e-13 0)
(-1.32817e-13 -1.03117e-13 0)
(-7.70155e-14 -1.65667e-13 0)
(-1.15717e-13 -2.06209e-13 0)
(1.62796e-15 -2.64315e-13 0)
(8.34002e-14 -1.61836e-13 0)
(9.36733e-14 -1.14648e-13 0)
(1.4646e-13 -9.28104e-14 0)
(1.30301e-13 -9.04886e-14 0)
(8.3885e-14 -1.14033e-13 0)
(-8.43077e-14 -1.38781e-13 0)
(2.77007e-14 -1.17546e-13 0)
(2.06494e-13 -1.49874e-13 0)
(9.31172e-14 -1.29346e-13 0)
(4.68463e-14 -1.44841e-13 0)
(-4.77633e-14 -1.44971e-13 0)
(-1.93047e-13 -1.24657e-13 0)
(-1.86603e-13 -1.35447e-13 0)
(-2.17152e-13 -1.51932e-13 0)
(-2.68095e-13 -2.15142e-13 0)
(-1.5866e-13 -1.22355e-13 0)
(4.25389e-14 -2.07106e-13 0)
(6.59114e-14 -2.75405e-13 0)
(-2.52321e-14 -2.58032e-13 0)
(1.42357e-13 -2.48547e-13 0)
(9.50899e-14 -2.54055e-13 0)
(1.4525e-13 -2.13546e-13 0)
(1.66047e-13 -2.11217e-13 0)
(1.14074e-13 -1.36441e-13 0)
(2.18898e-14 -3.54905e-14 0)
(-4.88271e-14 -6.7376e-15 0)
(-3.26089e-14 -7.12275e-14 0)
(3.78066e-15 -1.13871e-13 0)
(2.39843e-14 -6.77512e-15 0)
(5.38886e-15 -7.44953e-14 0)
(-1.39174e-14 -1.25168e-13 0)
(-5.95318e-14 -2.11319e-13 0)
(-1.40286e-13 -2.43972e-13 0)
(-2.04568e-13 -1.99416e-13 0)
(-1.53973e-13 -1.14819e-13 0)
(-1.84216e-13 -1.42262e-13 0)
(-3.01766e-14 -2.30955e-13 0)
(-3.60749e-14 -3.06413e-13 0)
(1.30273e-14 -2.70355e-13 0)
(1.41685e-13 -2.7223e-13 0)
(1.81874e-13 -1.3578e-13 0)
(8.97029e-14 -1.17287e-13 0)
(1.29256e-13 -7.80646e-14 0)
(2.58875e-13 -3.05706e-13 0)
(2.42584e-13 -3.876e-13 0)
(1.61025e-13 -3.52771e-13 0)
(5.74823e-14 -2.07961e-13 0)
(-5.74815e-14 -1.24896e-13 0)
(2.98229e-14 -2.24579e-13 0)
(5.29994e-14 -1.74865e-13 0)
(-5.98529e-14 -4.84316e-14 0)
(6.05668e-14 -1.40554e-13 0)
(1.58803e-14 -2.00134e-13 0)
(-6.85663e-14 -1.64037e-13 0)
(-9.03113e-14 -1.95052e-13 0)
(-5.81353e-14 -8.66947e-14 0)
(-8.49162e-14 -2.01738e-13 0)
(-1.16136e-13 -1.345e-13 0)
(-5.81935e-14 3.86534e-14 0)
(7.37269e-15 1.32316e-13 0)
(2.69362e-14 5.64272e-14 0)
(-7.14095e-15 -1.52517e-14 0)
(2.96838e-14 -1.10759e-13 0)
(1.75356e-14 -2.15022e-13 0)
(6.96807e-14 -2.76923e-13 0)
(9.65271e-14 -2.90398e-13 0)
(-3.60932e-14 -2.76679e-13 0)
(-7.17865e-14 -9.35752e-14 0)
(7.28036e-14 -1.2384e-13 0)
(1.26909e-13 -1.57311e-13 0)
(8.34156e-14 -2.14115e-13 0)
(2.0247e-14 -1.60374e-13 0)
(-9.05615e-14 -8.5584e-14 0)
(-9.54567e-14 -1.18977e-13 0)
(-1.01247e-13 -8.86722e-14 0)
(3.99752e-15 6.34844e-15 0)
(8.09686e-14 -9.21255e-14 0)
(-4.80979e-14 -1.1962e-13 0)
(-9.14932e-14 -4.64341e-14 0)
(-9.38716e-14 -1.43534e-13 0)
(-5.83981e-14 -1.17298e-13 0)
(-3.71661e-14 -1.66236e-13 0)
(-1.8068e-13 -1.98513e-13 0)
(-1.11048e-13 -7.42537e-14 0)
(7.16595e-14 -1.26965e-14 0)
(5.35694e-14 -1.05217e-13 0)
(-4.30093e-14 -2.5687e-13 0)
(-6.39659e-14 -2.77597e-13 0)
(5.52061e-15 -2.64555e-13 0)
(7.48101e-14 -2.79102e-13 0)
(7.86578e-14 -1.67126e-13 0)
(1.37536e-13 -1.96899e-13 0)
(1.89585e-13 -1.6249e-13 0)
(1.30973e-13 -2.43968e-13 0)
(3.21878e-14 -2.19862e-13 0)
(-1.82464e-14 -1.47053e-13 0)
(3.12277e-14 -4.96354e-14 0)
(1.41373e-13 -1.25435e-13 0)
(8.83489e-14 -1.99408e-13 0)
(-5.99317e-14 -2.24926e-13 0)
(-1.31036e-13 -1.52805e-13 0)
(3.3942e-14 -1.93641e-13 0)
(9.84334e-14 -1.27252e-13 0)
(4.65365e-15 -1.48597e-13 0)
(-3.12585e-14 -2.71985e-13 0)
(-1.30679e-13 -2.64577e-13 0)
(-1.99638e-13 -3.4944e-13 0)
(-2.91736e-13 -2.78294e-13 0)
(-2.34536e-13 1.69669e-14 0)
(3.92364e-14 9.66517e-14 0)
(3.04512e-14 -5.71943e-14 0)
(1.7859e-15 -9.2831e-14 0)
(-5.70879e-14 -2.16683e-13 0)
(-2.06066e-14 -1.03529e-13 0)
(2.28774e-15 -1.45215e-13 0)
(-3.60314e-14 -1.40013e-13 0)
(-2.4064e-14 -1.70504e-13 0)
(1.1775e-13 -1.3094e-13 0)
(1.92206e-13 -2.50074e-13 0)
(6.73697e-14 -3.05272e-13 0)
(-1.62342e-14 -2.81273e-13 0)
(-6.8963e-15 -1.97109e-13 0)
(-7.38312e-15 -2.03371e-13 0)
(-9.77509e-14 -2.43352e-13 0)
(-1.06166e-13 -1.69178e-13 0)
(6.85415e-14 -3.74116e-14 0)
(1.34295e-13 -6.54433e-14 0)
(-2.39134e-14 -1.1426e-13 0)
(-2.18978e-13 -1.60992e-13 0)
(-1.27225e-13 -2.05755e-13 0)
(6.61191e-14 -2.3759e-13 0)
(1.22285e-13 -3.61938e-13 0)
(2.58018e-14 -2.92699e-13 0)
(1.53808e-13 -2.08963e-13 0)
(3.26165e-13 -2.30147e-13 0)
(1.87559e-13 -2.6157e-13 0)
(9.60933e-14 -4.29814e-13 0)
(1.94991e-14 -4.40911e-13 0)
(-8.05194e-14 -3.43773e-13 0)
(-1.4708e-13 -2.60522e-13 0)
(-4.88537e-14 -2.37839e-13 0)
(1.46998e-14 -2.61969e-13 0)
(-5.27537e-14 -1.78682e-13 0)
(-1.87034e-13 -1.91667e-13 0)
(-2.07797e-13 -1.36009e-13 0)
(-1.64699e-13 -1.07879e-13 0)
(-1.74711e-13 -3.42076e-14 0)
(2.56991e-14 -7.27154e-14 0)
(7.76659e-14 -2.41456e-13 0)
(-2.02527e-14 -1.56472e-13 0)
(3.25262e-14 -1.94659e-13 0)
(7.70013e-14 -9.6318e-14 0)
(1.01282e-13 -1.07003e-13 0)
(5.30625e-14 -2.39894e-13 0)
(-5.96065e-14 -2.94559e-13 0)
(-2.25254e-14 -2.86749e-13 0)
(-1.1053e-13 -2.71758e-13 0)
(-1.7548e-13 -1.95494e-13 0)
(-1.41535e-13 -1.7633e-13 0)
(-9.65381e-14 -2.23063e-13 0)
(-1.494e-13 -1.77737e-13 0)
(-2.6124e-13 -2.69456e-13 0)
(-2.43212e-13 -2.50628e-13 0)
(-1.23975e-13 -2.15684e-13 0)
(-1.05944e-13 -1.47914e-13 0)
(-1.78108e-13 -1.43885e-13 0)
(1.15294e-14 -2.03971e-13 0)
(1.13293e-13 -1.52978e-13 0)
(7.15409e-14 -2.39592e-13 0)
(1.28531e-13 -3.39919e-13 0)
(9.67835e-14 -3.43689e-13 0)
(5.87775e-14 -2.77439e-13 0)
(-4.72508e-14 -3.36217e-13 0)
(3.55016e-14 -2.89629e-13 0)
(1.37953e-13 -3.56649e-13 0)
(1.11479e-14 -4.45922e-13 0)
(5.64636e-15 -4.471e-13 0)
(-4.36135e-14 -4.75931e-13 0)
(-1.32609e-13 -3.92824e-13 0)
(-1.40265e-13 -3.84342e-13 0)
(-1.92153e-13 -4.16237e-13 0)
(-1.63307e-13 -3.29555e-13 0)
(-1.0335e-13 -1.85131e-13 0)
(-5.58297e-14 -2.56437e-13 0)
(3.50555e-14 -3.59073e-13 0)
(-1.50948e-15 -3.28561e-13 0)
(7.46202e-14 -3.691e-13 0)
(1.8757e-13 -3.62741e-13 0)
(2.04471e-13 -2.56008e-13 0)
(1.38786e-13 -1.88818e-13 0)
(1.06163e-13 -2.55722e-13 0)
(6.71232e-14 -2.49681e-13 0)
(4.87459e-15 -2.48977e-13 0)
(-5.88623e-14 -2.22714e-13 0)
(1.72967e-14 -2.30945e-13 0)
(6.04684e-14 -1.34019e-13 0)
(-7.92507e-15 -1.92014e-13 0)
(-1.05827e-13 -2.11416e-13 0)
(-1.06921e-13 -2.804e-13 0)
(-1.31789e-13 -3.02366e-13 0)
(-1.27072e-13 -2.24757e-13 0)
(-9.77698e-14 -1.38715e-13 0)
(-2.32217e-13 -1.10378e-13 0)
(-1.69399e-13 -1.98716e-13 0)
(-6.17264e-14 -3.13475e-13 0)
(2.60865e-14 -1.81719e-13 0)
(1.33447e-13 -2.36064e-13 0)
(1.95696e-13 -2.05197e-13 0)
(1.93755e-13 -1.66772e-13 0)
(8.6347e-14 -1.7408e-13 0)
(6.85395e-14 -2.89235e-13 0)
(1.98769e-13 -4.09557e-13 0)
(2.75578e-13 -3.8127e-13 0)
(1.82969e-13 -2.99506e-13 0)
(-3.07059e-14 -2.52002e-13 0)
(-2.28994e-14 -1.89836e-13 0)
(3.01278e-14 -2.39436e-13 0)
(-1.3702e-14 -1.42477e-13 0)
(-1.28325e-14 -2.03169e-13 0)
(-1.71023e-14 -2.66929e-13 0)
(-4.32024e-14 -2.38568e-13 0)
(-2.81749e-14 -2.50262e-13 0)
(-3.46565e-14 -2.11146e-13 0)
(-1.3523e-13 -2.87646e-13 0)
(-4.47042e-14 -2.01999e-13 0)
(5.0563e-14 -1.13041e-13 0)
(5.0387e-14 -2.57553e-14 0)
(-8.85487e-14 -1.00292e-14 0)
(-9.68864e-14 -1.35112e-13 0)
(-1.84153e-14 -1.84224e-13 0)
(-2.07478e-14 -1.71919e-13 0)
(-1.24662e-14 -2.25537e-13 0)
(3.67785e-15 -2.66095e-13 0)
(8.26286e-14 -2.37648e-13 0)
(5.32583e-14 -2.08798e-13 0)
(5.88521e-14 -2.59993e-13 0)
(7.45114e-14 -3.17714e-13 0)
(9.66184e-14 -2.65233e-13 0)
(8.5326e-14 -2.43941e-13 0)
(-4.53033e-14 -3.00574e-13 0)
(-9.22766e-14 -2.32585e-13 0)
(-2.79614e-14 -1.80242e-13 0)
(-4.10421e-14 -1.70689e-14 0)
(-1.34824e-14 -1.36193e-13 0)
(2.69837e-14 -1.41066e-13 0)
(-1.44925e-13 -1.47377e-13 0)
(-1.14771e-13 -2.1729e-13 0)
(-6.21405e-14 -1.92351e-13 0)
(-1.14711e-13 -2.56588e-13 0)
(-5.44814e-14 -2.03221e-13 0)
(1.61475e-14 -2.28538e-14 0)
(9.9504e-14 -1.16327e-14 0)
(-8.97344e-14 -8.98194e-14 0)
(-1.98563e-13 -1.88932e-13 0)
(-4.58258e-14 -3.01458e-13 0)
(-2.80776e-14 -2.80158e-13 0)
(3.56894e-14 -2.89167e-13 0)
(1.09667e-13 -2.49014e-13 0)
(1.7792e-13 -2.54191e-13 0)
(2.11108e-13 -2.93848e-13 0)
(8.48858e-14 -3.15605e-13 0)
(2.02944e-14 -3.38728e-13 0)
(5.88502e-14 -2.88296e-13 0)
(1.08639e-13 -1.74771e-13 0)
(7.11479e-14 -2.1189e-13 0)
(6.65461e-14 -2.84885e-13 0)
(-1.69061e-14 -2.21327e-13 0)
(-9.27007e-14 -1.8543e-13 0)
(2.20218e-14 -2.22742e-13 0)
(8.14779e-14 -2.39246e-13 0)
(-6.086e-14 -2.47959e-13 0)
(-5.38531e-14 -3.61597e-13 0)
(-1.53841e-13 -3.58729e-13 0)
(-2.4768e-13 -4.20692e-13 0)
(-1.0482e-13 -3.34017e-13 0)
(-8.07752e-14 -1.07475e-13 0)
(-7.32502e-14 -5.82674e-14 0)
(-7.57628e-14 -1.35098e-13 0)
(-6.39496e-14 -2.24505e-13 0)
(-1.33966e-14 -2.71291e-13 0)
(1.51165e-14 -2.11812e-13 0)
(-3.48034e-14 -2.15608e-13 0)
(-5.41415e-14 -1.64548e-13 0)
(1.72436e-14 -1.23512e-13 0)
(7.85923e-14 -1.09459e-13 0)
(5.01552e-14 -2.7625e-13 0)
(4.1545e-14 -3.71424e-13 0)
(7.06783e-14 -2.82144e-13 0)
(4.95551e-14 -1.70271e-13 0)
(-5.80003e-14 -1.62263e-13 0)
(-1.30648e-14 -2.06564e-13 0)
(5.61158e-14 -9.12062e-14 0)
(9.78117e-14 9.59687e-15 0)
(4.1757e-14 -1.23525e-13 0)
(-1.11763e-13 -1.94549e-13 0)
(-2.0683e-13 -2.01692e-13 0)
(-8.77073e-14 -1.78686e-13 0)
(-2.20049e-14 -1.85349e-13 0)
(4.56263e-14 -2.64102e-13 0)
(1.51615e-13 -2.18938e-13 0)
(1.88416e-13 -1.32438e-13 0)
(2.40665e-13 -2.02662e-13 0)
(5.01446e-14 -3.2366e-13 0)
(-1.64362e-14 -3.93919e-13 0)
(1.02867e-13 -3.92463e-13 0)
(8.38822e-14 -3.38225e-13 0)
(-2.18241e-14 -2.39047e-13 0)
(-9.22731e-14 -2.73944e-13 0)
(-6.53293e-15 -2.78753e-13 0)
(-4.93588e-15 -3.06144e-13 0)
(-1.44464e-13 -3.34115e-13 0)
(-1.56841e-13 -2.84553e-13 0)
(-1.5518e-13 -2.39614e-13 0)
(-1.0299e-13 -1.31762e-13 0)
(-1.00774e-13 -1.42836e-13 0)
(-5.49732e-14 -2.54249e-13 0)
(2.4955e-14 -2.43359e-13 0)
(4.73838e-14 -1.70795e-13 0)
(7.96323e-14 -2.31569e-13 0)
(5.55561e-14 -2.43234e-13 0)
(-7.00733e-14 -3.00959e-13 0)
(-1.18215e-13 -3.4691e-13 0)
(-3.59296e-14 -3.66519e-13 0)
(-3.10534e-14 -3.45707e-13 0)
(-8.79379e-14 -2.45534e-13 0)
(-9.91885e-14 -1.88e-13 0)
(-7.91262e-14 -2.7095e-13 0)
(-2.1303e-13 -3.13506e-13 0)
(-3.0475e-13 -3.85179e-13 0)
(-2.23802e-13 -2.93428e-13 0)
(-5.599e-14 -2.68068e-13 0)
(-7.81002e-15 -2.03192e-13 0)
(-1.44594e-13 -2.00146e-13 0)
(-2.03208e-14 -1.09259e-13 0)
(5.12764e-14 -2.08126e-13 0)
(-3.62369e-14 -3.35804e-13 0)
(2.15081e-16 -4.12651e-13 0)
(1.16761e-13 -4.14856e-13 0)
(6.5021e-14 -3.71878e-13 0)
(-8.20214e-14 -3.60643e-13 0)
(3.87545e-14 -3.19549e-13 0)
(4.62763e-14 -3.9139e-13 0)
(-6.31217e-14 -4.79423e-13 0)
(-4.24475e-14 -5.44286e-13 0)
(3.40472e-15 -5.48972e-13 0)
(-7.41015e-14 -5.18661e-13 0)
(-1.81505e-13 -4.71791e-13 0)
(-1.13227e-13 -4.07237e-13 0)
(-2.21236e-14 -3.0962e-13 0)
(-3.10779e-14 -2.37205e-13 0)
(-5.00107e-14 -2.45739e-13 0)
(2.72853e-14 -2.5517e-13 0)
(-2.3921e-14 -3.21277e-13 0)
(4.26427e-14 -7.02589e-14 0)
(1.86018e-13 -1.25426e-13 0)
(2.60915e-13 -1.96772e-13 0)
(1.55215e-13 -1.5477e-13 0)
(6.21179e-14 -2.17114e-13 0)
(3.05089e-14 -1.67594e-13 0)
(-4.65966e-14 -1.92418e-13 0)
(1.52326e-14 -2.13024e-13 0)
(1.30762e-13 -1.46387e-13 0)
(8.1121e-14 -2.04449e-13 0)
(-6.78567e-14 -2.35791e-13 0)
(-1.17585e-13 -2.44519e-13 0)
(-1.12549e-13 -2.09687e-13 0)
(-7.92342e-14 -2.34365e-13 0)
(-5.69326e-14 -1.36632e-13 0)
(-1.00448e-13 -1.55954e-13 0)
(-2.32508e-13 -2.18515e-13 0)
(-2.24705e-13 -1.6013e-13 0)
(-3.88342e-15 -1.51735e-13 0)
(8.2414e-14 -7.04369e-14 0)
(1.35633e-13 -3.07837e-14 0)
(1.95553e-13 -2.67025e-14 0)
(1.17258e-13 -1.12883e-13 0)
(6.1498e-14 -1.65393e-13 0)
(6.46632e-14 -1.28703e-13 0)
(1.5244e-13 -2.23434e-13 0)
(1.96619e-13 -2.42022e-13 0)
(1.7318e-13 -3.00899e-13 0)
(7.98419e-14 -2.33944e-13 0)
(1.61191e-14 -1.4091e-13 0)
(8.59489e-14 -1.52484e-13 0)
(8.09551e-15 -1.5794e-13 0)
(-6.45172e-14 -2.09749e-13 0)
(2.6919e-14 -1.61254e-13 0)
(-4.48517e-14 -1.73336e-13 0)
(-1.28069e-13 -1.90117e-13 0)
(-9.98674e-14 -2.85847e-13 0)
(-3.1631e-14 -2.28429e-13 0)
(3.098e-14 -1.58485e-13 0)
(9.27094e-14 -8.38236e-14 0)
(3.95304e-14 -1.07985e-13 0)
(-1.37763e-13 -1.49066e-13 0)
(-1.37813e-13 -7.4058e-14 0)
(-7.16888e-15 -7.97225e-14 0)
(-2.81874e-15 -1.22092e-13 0)
(1.03212e-14 -4.74582e-14 0)
(1.44058e-14 1.61182e-14 0)
(5.2404e-14 2.14205e-14 0)
(-2.36784e-15 -3.90369e-14 0)
(-3.27096e-14 -1.54399e-13 0)
(7.52851e-14 -2.47127e-13 0)
(1.26326e-13 -1.98624e-13 0)
(6.19297e-14 -2.76466e-13 0)
(-3.80918e-14 -2.11379e-13 0)
(-4.0795e-14 -2.01183e-13 0)
(3.19277e-14 -1.59156e-13 0)
(1.59633e-15 -1.23232e-13 0)
(-5.26725e-14 -1.3711e-13 0)
(-1.06171e-14 -1.80348e-13 0)
(-1.38717e-13 -1.94775e-13 0)
(-1.24251e-13 -1.30425e-13 0)
(-6.22145e-14 -1.78501e-13 0)
(-4.77573e-14 -7.70241e-14 0)
(3.38211e-14 2.30531e-14 0)
(7.26961e-14 2.40894e-14 0)
(-2.08233e-14 -6.83967e-14 0)
(-1.21969e-13 -1.25172e-13 0)
(-2.06172e-13 -3.43181e-14 0)
(-1.34357e-13 -1.31422e-13 0)
(-1.03831e-14 -1.9466e-13 0)
(7.81345e-14 -9.86266e-14 0)
(9.77839e-14 -5.15647e-14 0)
(1.28121e-13 -5.7195e-14 0)
(1.48767e-13 -1.26114e-13 0)
(6.73488e-14 -1.8758e-13 0)
(5.11884e-14 -2.62082e-13 0)
(1.23214e-13 -1.89924e-13 0)
(1.04414e-13 -2.51008e-13 0)
(1.95688e-14 -1.74373e-13 0)
(5.02652e-14 -1.93881e-13 0)
(-3.6766e-16 -2.24952e-13 0)
(-1.17705e-13 -2.20432e-13 0)
(-1.54566e-14 -2.33177e-13 0)
(1.06726e-13 -2.35743e-13 0)
(-6.15084e-14 -2.20994e-13 0)
(-1.11163e-13 -2.38372e-13 0)
(-1.09361e-13 -2.76001e-13 0)
(-1.53105e-13 -1.87718e-13 0)
(-5.75702e-14 -1.17868e-13 0)
(-7.71253e-14 -1.13443e-13 0)
(-6.9734e-14 -1.58838e-13 0)
(-8.94354e-14 -2.17862e-13 0)
(-1.171e-13 -1.58278e-13 0)
(-2.72442e-14 -1.82682e-13 0)
(6.51669e-14 -1.84678e-13 0)
(3.11338e-14 -1.09343e-13 0)
(2.06331e-14 -1.49141e-14 0)
(2.32978e-14 5.10058e-15 0)
(-3.87047e-14 -1.88554e-14 0)
(-1.40547e-14 -1.19403e-13 0)
(6.04027e-14 -1.95497e-13 0)
(1.26116e-13 -1.52426e-13 0)
(1.22004e-13 -1.90116e-13 0)
(-2.539e-14 -1.18493e-13 0)
(-5.70219e-14 -5.33759e-14 0)
(5.20558e-14 -9.44345e-14 0)
(3.90824e-14 -1.04755e-13 0)
(-1.74263e-14 -1.8759e-13 0)
(-5.57596e-14 -1.48306e-13 0)
(-1.56471e-13 -1.16146e-13 0)
(-1.34712e-13 -8.61218e-14 0)
(-3.00763e-14 -1.55153e-13 0)
(2.40537e-14 -6.09595e-14 0)
(1.45766e-13 -2.01838e-14 0)
(1.97073e-13 -5.14351e-14 0)
(1.12985e-13 -1.54559e-13 0)
(4.34761e-14 -2.84927e-13 0)
(2.26824e-14 -1.92983e-13 0)
(7.93176e-14 -2.16678e-13 0)
(9.75248e-14 -2.29559e-13 0)
(-2.14315e-14 -2.01493e-13 0)
(-7.82119e-14 -1.37038e-13 0)
(-1.55904e-14 -1.19978e-13 0)
(-9.57488e-14 -1.98302e-13 0)
(-2.09833e-13 -2.87943e-13 0)
(-1.23548e-13 -2.99733e-13 0)
(-3.45572e-14 -2.51542e-13 0)
(-8.40879e-14 -2.43485e-13 0)
(-1.33663e-13 -1.64801e-13 0)
(-4.05892e-14 -8.75291e-14 0)
(3.63429e-14 -1.29133e-13 0)
(7.52188e-15 -8.47779e-14 0)
(1.97155e-14 -1.07991e-13 0)
(3.4163e-16 -5.92204e-14 0)
(-5.45597e-14 -1.06209e-13 0)
(-3.85225e-14 -6.40905e-14 0)
(-3.88197e-14 -7.68653e-14 0)
(-8.84912e-15 -8.27089e-14 0)
(-4.96797e-14 -5.7047e-14 0)
(-1.60875e-13 -1.09292e-13 0)
(-1.68249e-13 -1.78154e-13 0)
(-1.88004e-13 -2.48327e-13 0)
(-2.31633e-13 -1.49192e-13 0)
(-1.59408e-13 -1.15873e-13 0)
(-1.03167e-13 -6.39237e-14 0)
(-8.19161e-14 -1.98386e-13 0)
(-8.56703e-14 -1.74268e-13 0)
(1.98629e-14 -2.17053e-13 0)
(-2.27291e-14 -2.657e-13 0)
(-8.19329e-14 -2.59438e-13 0)
(1.0126e-14 -2.15019e-13 0)
(9.66148e-14 -1.36876e-13 0)
(6.01367e-14 -1.95731e-13 0)
(-3.32922e-14 -1.30919e-13 0)
(5.13515e-14 -1.4181e-13 0)
(-2.31116e-14 -2.53916e-13 0)
(-8.76441e-14 -2.79863e-13 0)
(-4.05961e-14 -2.88178e-13 0)
(-2.51075e-14 -2.79338e-13 0)
(-6.79848e-14 -2.61829e-13 0)
(-7.92384e-14 -1.93088e-13 0)
(-1.87931e-14 -9.49338e-14 0)
(5.65103e-14 -1.97474e-14 0)
(-1.81555e-14 1.07773e-14 0)
(-1.07552e-13 -2.60746e-14 0)
(-3.09182e-14 -3.87424e-14 0)
(-4.28233e-14 -8.66735e-14 0)
(7.0913e-14 -9.05935e-14 0)
(1.34389e-13 -9.38048e-14 0)
(1.78195e-13 -1.56705e-13 0)
(1.03944e-13 -2.30375e-13 0)
(9.24548e-14 -1.68376e-13 0)
(9.93243e-14 -1.73969e-13 0)
(-1.07431e-14 -1.29267e-13 0)
(1.33392e-14 -9.92515e-14 0)
(5.63427e-14 -1.64484e-13 0)
(7.52324e-15 -3.03022e-13 0)
(-3.64341e-14 -2.48636e-13 0)
(-4.5953e-14 -2.51241e-13 0)
(-8.75155e-14 -1.82074e-13 0)
(-4.99614e-14 -9.77459e-14 0)
(-2.59751e-15 -1.12879e-13 0)
(-1.69362e-13 -1.22556e-13 0)
(-2.56238e-13 -1.14961e-13 0)
(-1.61844e-13 -1.78164e-14 0)
(-2.11461e-15 -5.77172e-14 0)
(1.49714e-13 -5.26969e-14 0)
(1.93638e-13 4.37848e-14 0)
(9.7936e-14 -4.54054e-14 0)
(1.02265e-13 -3.59033e-14 0)
(9.55664e-14 -6.31053e-14 0)
(-2.60111e-15 -8.41132e-14 0)
(9.72188e-14 -1.72504e-13 0)
(1.55755e-13 -1.57436e-13 0)
(1.55371e-13 -2.74935e-13 0)
(1.59979e-13 -2.23692e-13 0)
(5.19709e-14 -1.59401e-13 0)
(5.89665e-14 -2.03529e-13 0)
(-2.45568e-14 -1.94546e-13 0)
(-5.43454e-14 -1.97158e-13 0)
(3.90689e-14 -2.16317e-13 0)
(-7.40934e-14 -2.27892e-13 0)
(-1.34091e-13 -1.65342e-13 0)
(-7.86468e-14 -2.3099e-13 0)
(3.05889e-16 -1.66618e-13 0)
(8.02285e-14 -1.63023e-13 0)
(7.96824e-14 -1.84402e-13 0)
(-2.56319e-14 -1.97051e-13 0)
(-5.0065e-14 -2.00205e-13 0)
(-3.93501e-14 -6.17471e-14 0)
(-7.40261e-14 -5.58508e-14 0)
(-9.41419e-15 -1.11928e-13 0)
(1.24854e-13 -6.4914e-14 0)
(9.14779e-14 2.97584e-14 0)
(-2.40213e-14 6.70286e-14 0)
(-1.09415e-13 -2.90469e-15 0)
(-1.19025e-13 -3.61021e-14 0)
(5.32255e-14 -7.38656e-14 0)
(8.03972e-14 -1.42708e-13 0)
(5.92208e-14 -2.23772e-13 0)
(4.47516e-14 -1.30119e-13 0)
(-2.59013e-14 -1.66028e-13 0)
(3.91522e-14 -7.6246e-14 0)
(-5.4596e-15 -1.40995e-13 0)
(-6.49632e-14 -8.89512e-14 0)
(-1.40557e-14 -1.2856e-13 0)
(-8.82397e-14 -1.57688e-13 0)
(-1.15434e-13 -4.90516e-14 0)
(-5.3276e-14 -1.16786e-13 0)
(6.85976e-14 -7.48483e-14 0)
(4.65234e-14 -3.39225e-14 0)
(-2.70033e-14 -7.70384e-14 0)
(-1.02253e-13 -1.71065e-13 0)
(-8.63089e-14 -2.15086e-13 0)
(-1.87667e-13 -1.20813e-13 0)
(-2.0402e-13 -8.53232e-14 0)
(2.26037e-14 -1.37107e-13 0)
(1.87629e-13 -9.34591e-14 0)
(1.57211e-13 -4.1234e-14 0)
(1.10549e-13 -2.9315e-14 0)
(4.55069e-14 -5.31236e-14 0)
(-2.45122e-14 -7.45995e-14 0)
(2.82395e-14 -1.56698e-13 0)
(8.51258e-14 -2.32039e-13 0)
(1.00461e-13 -2.62334e-13 0)
(1.16279e-13 -2.52531e-13 0)
(1.05544e-14 -1.58533e-13 0)
(-6.08503e-14 -1.77049e-13 0)
(-1.12019e-13 -1.10312e-13 0)
(1.37023e-14 -1.16607e-13 0)
(8.2068e-14 -1.75679e-13 0)
(-1.08422e-13 -2.80932e-13 0)
(-8.90951e-14 -1.77863e-13 0)
(-4.54888e-14 -2.10475e-13 0)
(-1.87133e-14 -5.07166e-14 0)
(-4.26908e-14 -1.64571e-14 0)
(-1.09854e-13 -1.16227e-13 0)
(-1.71758e-13 -1.89305e-13 0)
(-7.21301e-14 -2.40148e-13 0)
(-5.69555e-14 -1.63246e-13 0)
(-5.19964e-14 -1.02049e-13 0)
(5.93978e-14 -1.25309e-13 0)
(1.12571e-13 -9.24035e-14 0)
(1.45752e-14 -8.63577e-14 0)
(2.97681e-15 -1.36652e-13 0)
(-2.35891e-14 -1.29871e-13 0)
(-6.26637e-14 -9.65697e-14 0)
(5.24714e-15 -1.59082e-13 0)
(6.41072e-14 -1.50477e-13 0)
(6.18809e-14 -2.35035e-13 0)
(6.0716e-14 -2.38988e-13 0)
(-5.81748e-15 -1.32485e-13 0)
(2.01829e-14 -1.2479e-13 0)
(1.10409e-14 -2.13946e-13 0)
(-2.80922e-14 -2.61867e-13 0)
(-3.28523e-15 -2.32825e-13 0)
(-1.10372e-13 -1.77752e-13 0)
(-1.51098e-13 -6.94937e-14 0)
(-4.46669e-14 -1.44318e-13 0)
(1.26171e-13 -9.80238e-14 0)
(1.5309e-13 -7.64574e-14 0)
(8.86731e-14 -1.63216e-13 0)
(1.27443e-14 -2.30354e-13 0)
(5.55789e-14 -2.55234e-13 0)
(7.84622e-14 -2.06091e-13 0)
(3.78935e-14 -1.75847e-13 0)
(8.00812e-14 -1.38204e-13 0)
(9.21052e-14 -1.26566e-13 0)
(-2.18495e-15 -7.02789e-14 0)
(-6.0525e-14 -6.03487e-14 0)
(-1.70382e-13 -1.1742e-13 0)
(-2.38993e-13 -1.02894e-13 0)
(-1.20694e-13 -1.25425e-13 0)
(-6.58372e-14 -1.24391e-13 0)
(-4.55902e-14 -2.09085e-13 0)
(-1.07724e-14 -1.11026e-13 0)
(-7.52896e-14 -1.18392e-14 0)
(4.1923e-14 3.27157e-14 0)
(2.29853e-14 1.54773e-14 0)
(2.80714e-14 3.7621e-15 0)
(2.64208e-14 2.54333e-14 0)
(-4.60401e-14 5.35604e-14 0)
(-7.47023e-14 9.45385e-14 0)
(-4.08333e-14 7.2758e-14 0)
(-4.0351e-14 4.51851e-14 0)
(-1.13769e-13 -3.47601e-14 0)
(-1.95217e-13 -1.09804e-13 0)
(-2.1502e-13 -2.56314e-14 0)
(-1.98626e-13 -8.34097e-14 0)
(-1.40658e-13 -5.42448e-14 0)
(-1.0914e-13 -4.21748e-14 0)
(-1.55882e-13 1.81496e-14 0)
(-1.54394e-13 -5.32316e-14 0)
(-1.03117e-13 -1.08873e-13 0)
(-1.97297e-14 -8.9433e-14 0)
(-8.17404e-15 -1.59145e-13 0)
(-1.9078e-14 -1.33394e-13 0)
(9.23835e-14 -1.01708e-13 0)
(1.65171e-13 -5.06641e-14 0)
(9.70177e-14 -1.00195e-13 0)
(-1.81015e-14 -7.75577e-14 0)
(-7.62188e-14 -6.31819e-14 0)
(-5.42721e-14 -1.20085e-13 0)
(-8.55696e-14 -8.69331e-14 0)
(-4.54205e-14 -1.16441e-13 0)
(-2.39102e-14 -6.18678e-14 0)
(-1.41814e-15 -2.9891e-15 0)
(-5.72622e-15 2.8772e-14 0)
(3.35661e-14 4.49633e-14 0)
(8.56209e-14 9.73191e-14 0)
(2.22861e-14 5.47377e-14 0)
(-1.08757e-13 9.75611e-14 0)
(-3.23568e-14 8.45477e-14 0)
(-5.90131e-14 5.44778e-14 0)
(3.73105e-14 -1.42496e-13 0)
(1.2054e-13 -1.86916e-13 0)
(9.0001e-14 -2.56179e-13 0)
(1.21859e-13 -3.31425e-13 0)
(1.02394e-13 -2.97963e-13 0)
(1.06574e-13 -3.47458e-13 0)
(4.90379e-14 -3.25278e-13 0)
(-1.00894e-14 -2.633e-13 0)
(-7.0352e-14 -3.18585e-13 0)
(-1.41348e-14 -2.94788e-13 0)
(2.78589e-14 -2.98916e-13 0)
(-1.10735e-14 -2.40115e-13 0)
(1.99895e-14 -2.38092e-13 0)
(-1.89752e-14 -2.21113e-13 0)
(-5.65973e-14 -2.7931e-13 0)
(-1.26498e-13 -2.78983e-13 0)
(-1.81193e-13 -1.56125e-13 0)
(-1.5435e-13 -1.45174e-13 0)
(-1.40262e-15 -6.6104e-14 0)
(1.7909e-13 -5.49049e-14 0)
(1.09251e-13 -2.32542e-14 0)
(6.64762e-14 -1.22375e-13 0)
(1.28712e-13 -1.64779e-13 0)
(4.02828e-14 -2.04216e-13 0)
(-3.49438e-14 -2.44081e-13 0)
(6.92204e-14 -2.07587e-13 0)
(1.15734e-13 -2.51266e-13 0)
(9.27525e-14 -2.75202e-13 0)
(2.10522e-13 -3.02147e-13 0)
(9.28548e-14 -2.69092e-13 0)
(6.16405e-14 -2.9209e-13 0)
(-8.06776e-15 -2.66718e-13 0)
(-6.66817e-14 -2.4552e-13 0)
(2.46555e-14 -2.76232e-13 0)
(5.24963e-16 -2.61543e-13 0)
(-1.36103e-13 -2.26436e-13 0)
(-1.08879e-13 -2.56749e-13 0)
(2.49274e-15 -2.32008e-13 0)
(3.39367e-14 -2.40001e-13 0)
(5.78313e-14 -3.5904e-13 0)
(3.13409e-14 -3.68809e-13 0)
(-1.4731e-14 -3.22002e-13 0)
(1.7942e-15 -2.92051e-13 0)
(-6.40639e-14 -2.35678e-13 0)
(4.25638e-15 -1.35758e-13 0)
(1.57004e-13 -1.81055e-13 0)
(1.33888e-13 -1.82921e-13 0)
(-2.51982e-14 -1.39939e-13 0)
(-1.46989e-13 -1.39285e-13 0)
(-8.68367e-14 -8.10906e-14 0)
(1.35561e-14 -5.12504e-14 0)
(-7.92535e-15 -1.07623e-13 0)
(5.13504e-14 -1.56762e-13 0)
(3.31795e-14 -2.58307e-13 0)
(-1.26336e-15 -2.3382e-13 0)
(6.28426e-14 -2.1027e-13 0)
(6.67489e-15 -2.29049e-13 0)
(-3.24973e-14 -1.47073e-13 0)
(-6.45041e-14 -2.29182e-13 0)
(-4.15954e-14 -2.09797e-13 0)
(-8.46548e-14 -1.8134e-13 0)
(-6.47367e-14 -1.71722e-13 0)
(6.62233e-14 -1.97071e-13 0)
(-7.80228e-15 -2.38583e-13 0)
(-1.19475e-13 -2.33524e-13 0)
(-7.6354e-14 -1.88273e-13 0)
(-3.77274e-14 -1.85364e-13 0)
(-1.01325e-13 -1.8057e-13 0)
(-2.16894e-13 -6.79863e-14 0)
(-8.91148e-15 -7.52723e-14 0)
(2.06117e-13 -1.57971e-13 0)
(1.97475e-13 -2.10577e-13 0)
(1.11564e-13 -1.73738e-13 0)
(5.72811e-14 -1.92684e-13 0)
(-2.52967e-14 -1.62737e-13 0)
(-8.49719e-14 -1.59074e-13 0)
(2.19163e-14 -2.36675e-13 0)
(4.48765e-14 -2.98442e-13 0)
(9.50353e-14 -3.57928e-13 0)
(1.20655e-13 -3.20382e-13 0)
(1.81542e-14 -2.46329e-13 0)
(-8.32198e-14 -1.93786e-13 0)
(-6.06299e-14 -2.22113e-13 0)
(-6.22568e-14 -3.22633e-13 0)
(-5.35498e-14 -3.70738e-13 0)
(-2.73579e-14 -2.88136e-13 0)
(-2.01374e-14 -2.69553e-13 0)
(4.17533e-15 -1.68988e-13 0)
(-1.0133e-13 -2.27351e-13 0)
(-1.89614e-13 -2.50435e-13 0)
(-1.33098e-13 -2.3183e-13 0)
(-5.36964e-14 -2.10398e-13 0)
(-3.7459e-14 -2.41246e-13 0)
(9.0762e-15 -2.05042e-13 0)
(9.16554e-14 -2.09002e-13 0)
(1.05305e-13 -2.65698e-13 0)
(-1.4673e-14 -3.11962e-13 0)
(-2.02547e-14 -3.6398e-13 0)
(-4.60434e-16 -3.11903e-13 0)
(-5.1979e-14 -2.83766e-13 0)
(-7.09298e-15 -2.45504e-13 0)
(4.8764e-14 -2.78959e-13 0)
(1.94431e-14 -2.49577e-13 0)
(8.42314e-14 -2.46489e-13 0)
(6.15809e-14 -2.27066e-13 0)
(-2.97078e-14 -2.55534e-13 0)
(-4.57922e-14 -3.09039e-13 0)
(-3.16778e-15 -2.5909e-13 0)
(-4.10245e-15 -3.05992e-13 0)
(9.05887e-15 -2.30805e-13 0)
(-1.17863e-13 -2.00279e-13 0)
(-3.84358e-14 -1.52349e-13 0)
(1.51223e-13 -1.30828e-13 0)
(9.22982e-14 -2.5396e-13 0)
(-1.68152e-14 -3.08001e-13 0)
(1.60135e-14 -2.46823e-13 0)
(9.33733e-14 -2.33569e-13 0)
(1.115e-13 -2.66789e-13 0)
(7.70151e-14 -2.38704e-13 0)
(1.27703e-13 -1.9299e-13 0)
(3.08126e-14 -2.1463e-13 0)
(-3.25014e-14 -2.54031e-13 0)
(-4.7268e-15 -2.61694e-13 0)
(-1.45125e-13 -2.29179e-13 0)
(-2.1631e-13 -1.6785e-13 0)
(-1.51825e-13 -1.51711e-13 0)
(-1.47931e-13 -2.01416e-13 0)
(-5.43293e-14 -2.03778e-13 0)
(5.62606e-14 -2.33416e-13 0)
(1.09267e-14 -1.78492e-13 0)
(4.68637e-14 -1.18523e-13 0)
(-3.19838e-14 -9.49334e-14 0)
(-3.74056e-15 -1.38963e-13 0)
(5.30673e-14 -1.56364e-13 0)
(1.21134e-16 -1.14228e-13 0)
(-3.90264e-14 -9.92072e-14 0)
(-2.81113e-14 -1.3893e-13 0)
(-9.71367e-14 -1.42249e-13 0)
(-1.33099e-13 -1.86686e-13 0)
(-1.4885e-13 -2.25574e-13 0)
(-1.91094e-13 -1.90289e-13 0)
(-2.32147e-13 -1.66458e-13 0)
(-1.84378e-13 -1.20022e-13 0)
(-1.15897e-13 -1.05318e-13 0)
(-1.2276e-13 -1.18756e-13 0)
(-1.6804e-13 -4.29252e-14 0)
(-1.01076e-13 -4.9808e-14 0)
(-4.65405e-14 -3.09889e-14 0)
(-6.27162e-14 -1.0518e-13 0)
(2.69779e-15 -1.0835e-13 0)
(9.84208e-14 -1.09312e-13 0)
(1.5177e-13 -1.53728e-13 0)
(9.84595e-14 -1.74263e-13 0)
(3.68767e-16 -1.69554e-13 0)
(-5.80197e-14 -1.17556e-13 0)
(-8.21712e-14 -1.32485e-13 0)
(-3.91202e-14 -1.08995e-13 0)
(-4.26423e-14 -7.71605e-14 0)
(1.13656e-14 -3.86736e-14 0)
(1.93808e-14 -3.73952e-14 0)
(2.23373e-14 -1.05233e-14 0)
(6.8954e-14 1.75639e-15 0)
(1.07005e-13 1.55732e-14 0)
(-8.45867e-16 -8.04524e-14 0)
(-5.73763e-14 -1.74861e-14 0)
(-9.93383e-14 -4.11178e-15 0)