/*--------------------------------*- C++ -*----------------------------------*\
  =========                 |
  \\      /  F ield         | OpenFOAM: The Open Source CFD Toolbox
   \\    /   O peration     | Website:  https://openfoam.org
    \\  /    A nd           | Version:  13
     \\/     M anipulation  |
\*---------------------------------------------------------------------------*/
FoamFile
{
    format      ascii;
    class       volScalarField;
    location    "0.0009";
    object      CO2;
}
// * * * * * * * * * * * * * * * * * * * * * * * * * * * * * * * * * * * * * //

dimensions      [];

internalField   nonuniform List<scalar> 
33334
(
0.00583765
0.00583765
0.00583765
0.00583765
0.00583765
0.00583765
0.00583765
0.00583765
0.00583765
0.00583765
0.00583765
0.00583765
0.00583765
0.00583765
0.00583765
0.00583765
0.00583765
0.00583765
0.00583765
0.00583765
0.00583765
0.00583765
0.00583765
0.00583765
0.00583765
0.00583765
0.00583765
0.00583765
0.00583765
0.00583765
0.00583765
0.00583765
0.00583765
0.00583765
0.00583765
0.00583765
0.00583764
0.00583758
0.00583715
0.00583548
0.00583116
0.00582244
0.00580757
0.00578507
0.00575385
0.0057133
0.00566324
0.00560391
0.00553581
0.00545968
0.00537637
0.00528681
0.00519193
0.00509266
0.00498986
0.00488434
0.00477685
0.00466805
0.00455855
0.00444886
0.00433944
0.0042307
0.00412296
0.00401651
0.0039116
0.00380839
0.00370704
0.00360762
0.00351018
0.00341474
0.00332125
0.00322969
0.00314
0.00305211
0.00296597
0.00288153
0.00279873
0.00271751
0.00263782
0.00255961
0.00248283
0.00240742
0.00233335
0.00226058
0.00218907
0.00211878
0.00204969
0.00198175
0.00191493
0.00184921
0.00178455
0.00172091
0.00165828
0.00159663
0.00153591
0.00147611
0.0014172
0.00135917
0.00130201
0.00124572
0.00119024
0.00113548
0.00108131
0.00102769
0.00097475
0.000922942
0.000872912
0.000825103
0.000779049
0.00073261
0.00068141
0.000618782
0.000537176
0.000432608
0.000311476
0.000192664
9.80935e-05
3.89135e-05
1.10953e-05
2.02086e-06
1.99693e-07
8.667e-09
1.29682e-10
6.34053e-13
1.17529e-13
1.17223e-13
1.17042e-13
1.15674e-13
1.11512e-13
1.0403e-13
9.42516e-14
8.38179e-14
7.39066e-14
6.48886e-14
5.66034e-14
4.87332e-14
4.10204e-14
3.33357e-14
2.56754e-14
1.81611e-14
1.11035e-14
5.16428e-15
1.37729e-15
1.24047e-16
6.3339e-18
4.40567e-18
4.38809e-18
4.38784e-18
4.38783e-18
4.38783e-18
4.38783e-18
4.38783e-18
4.38783e-18
4.38783e-18
4.38783e-18
4.38783e-18
4.38783e-18
4.38783e-18
4.38783e-18
4.38783e-18
4.38783e-18
4.38783e-18
4.38783e-18
4.38783e-18
4.38783e-18
4.38783e-18
0.00583765
0.00583765
0.00583765
0.00583765
0.00583765
0.00583765
0.00583765
0.00583765
0.00583765
0.00583765
0.00583765
0.00583765
0.00583765
0.00583765
0.00583765
0.00583765
0.00583765
0.00583765
0.00583765
0.00583765
0.00583765
0.00583765
0.00583765
0.00583765
0.00583765
0.00583765
0.00583765
0.00583765
0.00583765
0.00583765
0.00583765
0.00583765
0.00583765
0.00583765
0.00583765
0.00583765
0.00583764
0.00583758
0.00583715
0.00583548
0.00583116
0.00582244
0.00580757
0.00578507
0.00575385
0.0057133
0.00566324
0.00560391
0.00553581
0.00545968
0.00537637
0.00528681
0.00519193
0.00509266
0.00498986
0.00488434
0.00477685
0.00466805
0.00455855
0.00444886
0.00433945
0.0042307
0.00412296
0.00401652
0.0039116
0.0038084
0.00370704
0.00360763
0.00351019
0.00341474
0.00332126
0.0032297
0.00314001
0.00305212
0.00296598
0.00288154
0.00279874
0.00271753
0.00263784
0.00255963
0.00248284
0.00240744
0.00233337
0.0022606
0.00218909
0.0021188
0.00204971
0.00198177
0.00191495
0.00184923
0.00178457
0.00172094
0.00165831
0.00159665
0.00153594
0.00147613
0.00141722
0.00135919
0.00130204
0.00124575
0.00119027
0.00113551
0.00108134
0.00102772
0.000974782
0.000922973
0.000872942
0.000825132
0.000779078
0.000732641
0.000681447
0.000618829
0.000537236
0.000432677
0.000311545
0.000192719
9.81275e-05
3.8929e-05
1.11003e-05
2.0219e-06
1.99812e-07
8.67315e-09
1.29793e-10
6.34574e-13
1.17527e-13
1.17221e-13
1.1704e-13
1.15672e-13
1.11511e-13
1.0403e-13
9.42515e-14
8.38178e-14
7.39064e-14
6.48883e-14
5.66031e-14
4.87329e-14
4.10201e-14
3.33355e-14
2.56752e-14
1.8161e-14
1.11034e-14
5.16428e-15
1.3773e-15
1.24049e-16
6.33397e-18
4.40567e-18
4.38809e-18
4.38784e-18
4.38783e-18
4.38783e-18
4.38783e-18
4.38783e-18
4.38783e-18
4.38783e-18
4.38783e-18
4.38783e-18
4.38783e-18
4.38783e-18
4.38783e-18
4.38783e-18
4.38783e-18
4.38783e-18
4.38783e-18
4.38783e-18
4.38783e-18
4.38783e-18
0.00583765
0.00583765
0.00583765
0.00583765
0.00583765
0.00583765
0.00583765
0.00583765
0.00583765
0.00583765
0.00583765
0.00583765
0.00583765
0.00583765
0.00583765
0.00583765
0.00583765
0.00583765
0.00583765
0.00583765
0.00583765
0.00583765
0.00583765
0.00583765
0.00583765
0.00583765
0.00583765
0.00583765
0.00583765
0.00583765
0.00583765
0.00583765
0.00583765
0.00583765
0.00583765
0.00583765
0.00583764
0.00583758
0.00583715
0.00583548
0.00583116
0.00582244
0.00580757
0.00578507
0.00575385
0.0057133
0.00566324
0.00560391
0.00553581
0.00545968
0.00537637
0.00528681
0.00519193
0.00509266
0.00498986
0.00488434
0.00477685
0.00466806
0.00455855
0.00444886
0.00433945
0.0042307
0.00412296
0.00401652
0.0039116
0.0038084
0.00370705
0.00360763
0.0035102
0.00341475
0.00332127
0.00322971
0.00314002
0.00305213
0.00296599
0.00288155
0.00279875
0.00271754
0.00263785
0.00255964
0.00248286
0.00240745
0.00233339
0.00226062
0.00218911
0.00211882
0.00204973
0.00198179
0.00191498
0.00184925
0.00178459
0.00172096
0.00165833
0.00159668
0.00153596
0.00147616
0.00141725
0.00135922
0.00130207
0.00124578
0.0011903
0.00113554
0.00108138
0.00102775
0.000974816
0.000923008
0.000872977
0.000825165
0.000779111
0.000732677
0.000681489
0.000618884
0.000537309
0.000432766
0.000311637
0.000192796
9.81776e-05
3.89534e-05
1.11085e-05
2.02365e-06
2.00011e-07
8.68305e-09
1.29962e-10
6.35346e-13
1.17523e-13
1.17216e-13
1.17036e-13
1.15668e-13
1.11508e-13
1.04028e-13
9.42501e-14
8.38166e-14
7.39053e-14
6.48872e-14
5.66021e-14
4.8732e-14
4.10195e-14
3.3335e-14
2.56749e-14
1.81608e-14
1.11034e-14
5.16428e-15
1.37731e-15
1.24052e-16
6.33405e-18
4.40567e-18
4.38809e-18
4.38784e-18
4.38783e-18
4.38783e-18
4.38783e-18
4.38783e-18
4.38783e-18
4.38783e-18
4.38783e-18
4.38783e-18
4.38783e-18
4.38783e-18
4.38783e-18
4.38783e-18
4.38783e-18
4.38783e-18
4.38783e-18
4.38783e-18
4.38783e-18
4.38783e-18
0.00583765
0.00583765
0.00583765
0.00583765
0.00583765
0.00583765
0.00583765
0.00583765
0.00583765
0.00583765
0.00583765
0.00583765
0.00583765
0.00583765
0.00583765
0.00583765
0.00583765
0.00583765
0.00583765
0.00583765
0.00583765
0.00583765
0.00583765
0.00583765
0.00583765
0.00583765
0.00583765
0.00583765
0.00583765
0.00583765
0.00583765
0.00583765
0.00583765
0.00583765
0.00583765
0.00583765
0.00583764
0.00583758
0.00583715
0.00583548
0.00583116
0.00582243
0.00580757
0.00578507
0.00575385
0.0057133
0.00566324
0.0056039
0.00553581
0.00545968
0.00537637
0.00528681
0.00519193
0.00509266
0.00498986
0.00488434
0.00477685
0.00466805
0.00455855
0.00444886
0.00433945
0.0042307
0.00412296
0.00401652
0.0039116
0.0038084
0.00370705
0.00360763
0.0035102
0.00341475
0.00332127
0.00322971
0.00314002
0.00305213
0.00296599
0.00288155
0.00279876
0.00271754
0.00263786
0.00255965
0.00248286
0.00240746
0.00233339
0.00226062
0.00218912
0.00211883
0.00204974
0.0019818
0.00191499
0.00184926
0.0017846
0.00172097
0.00165835
0.00159669
0.00153597
0.00147617
0.00141726
0.00135924
0.00130208
0.00124579
0.00119032
0.00113556
0.00108139
0.00102777
0.000974834
0.000923026
0.000872994
0.000825182
0.000779128
0.000732695
0.000681512
0.000618915
0.000537352
0.000432821
0.000311696
0.000192848
9.8213e-05
3.89715e-05
1.1115e-05
2.02506e-06
2.00175e-07
8.69133e-09
1.30104e-10
6.35986e-13
1.1752e-13
1.17213e-13
1.17032e-13
1.15665e-13
1.11506e-13
1.04026e-13
9.42484e-14
8.38152e-14
7.39041e-14
6.48862e-14
5.66013e-14
4.87314e-14
4.1019e-14
3.33348e-14
2.56748e-14
1.81608e-14
1.11034e-14
5.16431e-15
1.37733e-15
1.24055e-16
6.33412e-18
4.40567e-18
4.38809e-18
4.38784e-18
4.38783e-18
4.38783e-18
4.38783e-18
4.38783e-18
4.38783e-18
4.38783e-18
4.38783e-18
4.38783e-18
4.38783e-18
4.38783e-18
4.38783e-18
4.38783e-18
4.38783e-18
4.38783e-18
4.38783e-18
4.38783e-18
4.38783e-18
4.38783e-18
0.00583765
0.00583765
0.00583765
0.00583765
0.00583765
0.00583765
0.00583765
0.00583765
0.00583765
0.00583765
0.00583765
0.00583765
0.00583765
0.00583765
0.00583765
0.00583765
0.00583765
0.00583765
0.00583765
0.00583765
0.00583765
0.00583765
0.00583765
0.00583765
0.00583765
0.00583765
0.00583765
0.00583765
0.00583765
0.00583765
0.00583765
0.00583765
0.00583765
0.00583765
0.00583765
0.00583765
0.00583764
0.00583758
0.00583715
0.00583548
0.00583116
0.00582243
0.00580757
0.00578507
0.00575385
0.00571329
0.00566324
0.0056039
0.00553581
0.00545968
0.00537637
0.00528681
0.00519193
0.00509266
0.00498985
0.00488434
0.00477685
0.00466805
0.00455855
0.00444886
0.00433945
0.0042307
0.00412296
0.00401652
0.0039116
0.0038084
0.00370705
0.00360763
0.0035102
0.00341475
0.00332127
0.00322971
0.00314002
0.00305213
0.00296599
0.00288155
0.00279876
0.00271754
0.00263786
0.00255965
0.00248286
0.00240746
0.00233339
0.00226063
0.00218912
0.00211883
0.00204974
0.0019818
0.00191499
0.00184927
0.00178461
0.00172098
0.00165835
0.00159669
0.00153598
0.00147618
0.00141727
0.00135924
0.00130209
0.0012458
0.00119032
0.00113556
0.0010814
0.00102778
0.000974839
0.000923031
0.000872999
0.000825187
0.000779132
0.0007327
0.000681519
0.000618925
0.000537366
0.00043284
0.000311718
0.000192868
9.82274e-05
3.89791e-05
1.11178e-05
2.02572e-06
2.00256e-07
8.69563e-09
1.30182e-10
6.36347e-13
1.17518e-13
1.17211e-13
1.1703e-13
1.15663e-13
1.11504e-13
1.04025e-13
9.42476e-14
8.38146e-14
7.39037e-14
6.48859e-14
5.66011e-14
4.87313e-14
4.10189e-14
3.33347e-14
2.56748e-14
1.81608e-14
1.11034e-14
5.16435e-15
1.37735e-15
1.24058e-16
6.33419e-18
4.40567e-18
4.38809e-18
4.38784e-18
4.38783e-18
4.38783e-18
4.38783e-18
4.38783e-18
4.38783e-18
4.38783e-18
4.38783e-18
4.38783e-18
4.38783e-18
4.38783e-18
4.38783e-18
4.38783e-18
4.38783e-18
4.38783e-18
4.38783e-18
4.38783e-18
4.38783e-18
4.38783e-18
0.00583765
0.00583765
0.00583765
0.00583765
0.00583765
0.00583765
0.00583765
0.00583765
0.00583765
0.00583765
0.00583765
0.00583765
0.00583765
0.00583765
0.00583765
0.00583765
0.00583765
0.00583765
0.00583765
0.00583765
0.00583765
0.00583765
0.00583765
0.00583765
0.00583765
0.00583765
0.00583765
0.00583765
0.00583765
0.00583765
0.00583765
0.00583765
0.00583765
0.00583765
0.00583765
0.00583765
0.00583764
0.00583758
0.00583715
0.00583548
0.00583116
0.00582243
0.00580757
0.00578507
0.00575385
0.00571329
0.00566324
0.0056039
0.00553581
0.00545968
0.00537637
0.00528681
0.00519193
0.00509265
0.00498985
0.00488434
0.00477685
0.00466805
0.00455855
0.00444886
0.00433944
0.0042307
0.00412296
0.00401652
0.0039116
0.0038084
0.00370705
0.00360763
0.0035102
0.00341475
0.00332127
0.00322971
0.00314002
0.00305213
0.00296599
0.00288155
0.00279876
0.00271754
0.00263786
0.00255965
0.00248286
0.00240746
0.00233339
0.00226063
0.00218912
0.00211883
0.00204974
0.0019818
0.00191499
0.00184927
0.00178461
0.00172098
0.00165835
0.00159669
0.00153598
0.00147618
0.00141727
0.00135924
0.00130209
0.0012458
0.00119032
0.00113556
0.0010814
0.00102778
0.00097484
0.000923031
0.000872999
0.000825187
0.000779133
0.0007327
0.00068152
0.000618926
0.000537369
0.000432844
0.000311723
0.000192873
9.82304e-05
3.89808e-05
1.11185e-05
2.02589e-06
2.00281e-07
8.6971e-09
1.30211e-10
6.36495e-13
1.17518e-13
1.1721e-13
1.1703e-13
1.15663e-13
1.11504e-13
1.04025e-13
9.42474e-14
8.38146e-14
7.39036e-14
6.48859e-14
5.66011e-14
4.87313e-14
4.1019e-14
3.33348e-14
2.56749e-14
1.81609e-14
1.11035e-14
5.1644e-15
1.37737e-15
1.24061e-16
6.33425e-18
4.40567e-18
4.38809e-18
4.38784e-18
4.38783e-18
4.38783e-18
4.38783e-18
4.38783e-18
4.38783e-18
4.38783e-18
4.38783e-18
4.38783e-18
4.38783e-18
4.38783e-18
4.38783e-18
4.38783e-18
4.38783e-18
4.38783e-18
4.38783e-18
4.38783e-18
4.38783e-18
4.38783e-18
0.00583765
0.00583765
0.00583765
0.00583765
0.00583765
0.00583765
0.00583765
0.00583765
0.00583765
0.00583765
0.00583765
0.00583765
0.00583765
0.00583765
0.00583765
0.00583765
0.00583765
0.00583765
0.00583765
0.00583765
0.00583765
0.00583765
0.00583765
0.00583765
0.00583765
0.00583765
0.00583765
0.00583765
0.00583765
0.00583765
0.00583765
0.00583765
0.00583765
0.00583765
0.00583765
0.00583765
0.00583764
0.00583758
0.00583715
0.00583548
0.00583116
0.00582243
0.00580757
0.00578507
0.00575385
0.00571329
0.00566324
0.0056039
0.00553581
0.00545968
0.00537637
0.00528681
0.00519193
0.00509265
0.00498985
0.00488434
0.00477685
0.00466805
0.00455855
0.00444886
0.00433944
0.0042307
0.00412296
0.00401652
0.0039116
0.0038084
0.00370705
0.00360763
0.0035102
0.00341475
0.00332127
0.00322971
0.00314002
0.00305213
0.00296599
0.00288155
0.00279875
0.00271754
0.00263786
0.00255965
0.00248286
0.00240746
0.00233339
0.00226063
0.00218912
0.00211883
0.00204974
0.0019818
0.00191499
0.00184927
0.00178461
0.00172098
0.00165835
0.00159669
0.00153598
0.00147618
0.00141727
0.00135924
0.00130209
0.0012458
0.00119032
0.00113556
0.0010814
0.00102778
0.00097484
0.000923031
0.000872999
0.000825187
0.000779132
0.0007327
0.000681519
0.000618926
0.000537368
0.000432843
0.000311722
0.000192872
9.82303e-05
3.89808e-05
1.11185e-05
2.02592e-06
2.00286e-07
8.69744e-09
1.30219e-10
6.36542e-13
1.17518e-13
1.1721e-13
1.1703e-13
1.15663e-13
1.11504e-13
1.04025e-13
9.42476e-14
8.38147e-14
7.39037e-14
6.4886e-14
5.66012e-14
4.87314e-14
4.10191e-14
3.33349e-14
2.5675e-14
1.8161e-14
1.11036e-14
5.16444e-15
1.37739e-15
1.24063e-16
6.33431e-18
4.40567e-18
4.38809e-18
4.38784e-18
4.38783e-18
4.38783e-18
4.38783e-18
4.38783e-18
4.38783e-18
4.38783e-18
4.38783e-18
4.38783e-18
4.38783e-18
4.38783e-18
4.38783e-18
4.38783e-18
4.38783e-18
4.38783e-18
4.38783e-18
4.38783e-18
4.38783e-18
4.38783e-18
0.00583765
0.00583765
0.00583765
0.00583765
0.00583765
0.00583765
0.00583765
0.00583765
0.00583765
0.00583765
0.00583765
0.00583765
0.00583765
0.00583765
0.00583765
0.00583765
0.00583765
0.00583765
0.00583765
0.00583765
0.00583765
0.00583765
0.00583765
0.00583765
0.00583765
0.00583765
0.00583765
0.00583765
0.00583765
0.00583765
0.00583765
0.00583765
0.00583765
0.00583765
0.00583765
0.00583765
0.00583764
0.00583758
0.00583715
0.00583548
0.00583116
0.00582243
0.00580757
0.00578507
0.00575385
0.00571329
0.00566324
0.0056039
0.00553581
0.00545968
0.00537637
0.00528681
0.00519193
0.00509265
0.00498985
0.00488434
0.00477685
0.00466805
0.00455855
0.00444886
0.00433944
0.0042307
0.00412296
0.00401652
0.0039116
0.0038084
0.00370704
0.00360763
0.0035102
0.00341475
0.00332127
0.00322971
0.00314002
0.00305213
0.00296599
0.00288155
0.00279875
0.00271754
0.00263786
0.00255965
0.00248286
0.00240746
0.00233339
0.00226062
0.00218912
0.00211883
0.00204974
0.0019818
0.00191499
0.00184927
0.00178461
0.00172098
0.00165835
0.00159669
0.00153598
0.00147618
0.00141727
0.00135924
0.00130209
0.0012458
0.00119032
0.00113556
0.0010814
0.00102778
0.000974839
0.000923031
0.000872999
0.000825186
0.000779132
0.000732699
0.000681518
0.000618924
0.000537366
0.000432841
0.00031172
0.00019287
9.82291e-05
3.89804e-05
1.11184e-05
2.0259e-06
2.00285e-07
8.6975e-09
1.30221e-10
6.36557e-13
1.17518e-13
1.17211e-13
1.1703e-13
1.15663e-13
1.11504e-13
1.04025e-13
9.42479e-14
8.38149e-14
7.39039e-14
6.48862e-14
5.66014e-14
4.87316e-14
4.10192e-14
3.3335e-14
2.5675e-14
1.8161e-14
1.11036e-14
5.16448e-15
1.37741e-15
1.24066e-16
6.33437e-18
4.40567e-18
4.38809e-18
4.38784e-18
4.38783e-18
4.38783e-18
4.38783e-18
4.38783e-18
4.38783e-18
4.38783e-18
4.38783e-18
4.38783e-18
4.38783e-18
4.38783e-18
4.38783e-18
4.38783e-18
4.38783e-18
4.38783e-18
4.38783e-18
4.38783e-18
4.38783e-18
4.38783e-18
0.00583765
0.00583765
0.00583765
0.00583765
0.00583765
0.00583765
0.00583765
0.00583765
0.00583765
0.00583765
0.00583765
0.00583765
0.00583765
0.00583765
0.00583765
0.00583765
0.00583765
0.00583765
0.00583765
0.00583765
0.00583765
0.00583765
0.00583765
0.00583765
0.00583765
0.00583765
0.00583765
0.00583765
0.00583765
0.00583765
0.00583765
0.00583765
0.00583765
0.00583765
0.00583765
0.00583765
0.00583764
0.00583758
0.00583715
0.00583548
0.00583116
0.00582243
0.00580757
0.00578507
0.00575385
0.00571329
0.00566324
0.0056039
0.00553581
0.00545968
0.00537637
0.00528681
0.00519193
0.00509265
0.00498985
0.00488433
0.00477684
0.00466805
0.00455855
0.00444886
0.00433944
0.0042307
0.00412296
0.00401652
0.0039116
0.0038084
0.00370704
0.00360763
0.00351019
0.00341475
0.00332127
0.00322971
0.00314002
0.00305213
0.00296599
0.00288155
0.00279875
0.00271754
0.00263786
0.00255965
0.00248286
0.00240746
0.00233339
0.00226062
0.00218912
0.00211883
0.00204974
0.0019818
0.00191499
0.00184926
0.0017846
0.00172098
0.00165835
0.00159669
0.00153598
0.00147618
0.00141727
0.00135924
0.00130209
0.0012458
0.00119032
0.00113556
0.0010814
0.00102778
0.000974839
0.00092303
0.000872998
0.000825186
0.000779131
0.000732698
0.000681517
0.000618922
0.000537363
0.000432837
0.000311716
0.000192867
9.82272e-05
3.89795e-05
1.11181e-05
2.02586e-06
2.00282e-07
8.69743e-09
1.30221e-10
6.36563e-13
1.17519e-13
1.17211e-13
1.17031e-13
1.15664e-13
1.11505e-13
1.04026e-13
9.42482e-14
8.38153e-14
7.39042e-14
6.48864e-14
5.66016e-14
4.87317e-14
4.10193e-14
3.33351e-14
2.56751e-14
1.81611e-14
1.11037e-14
5.16452e-15
1.37742e-15
1.24068e-16
6.33443e-18
4.40567e-18
4.38809e-18
4.38784e-18
4.38783e-18
4.38783e-18
4.38783e-18
4.38783e-18
4.38783e-18
4.38783e-18
4.38783e-18
4.38783e-18
4.38783e-18
4.38783e-18
4.38783e-18
4.38783e-18
4.38783e-18
4.38783e-18
4.38783e-18
4.38783e-18
4.38783e-18
4.38783e-18
0.00583765
0.00583765
0.00583765
0.00583765
0.00583765
0.00583765
0.00583765
0.00583765
0.00583765
0.00583765
0.00583765
0.00583765
0.00583765
0.00583765
0.00583765
0.00583765
0.00583765
0.00583765
0.00583765
0.00583765
0.00583765
0.00583765
0.00583765
0.00583765
0.00583765
0.00583765
0.00583765
0.00583765
0.00583765
0.00583765
0.00583765
0.00583765
0.00583765
0.00583765
0.00583765
0.00583765
0.00583764
0.00583758
0.00583715
0.00583548
0.00583116
0.00582243
0.00580757
0.00578507
0.00575385
0.00571329
0.00566324
0.0056039
0.00553581
0.00545967
0.00537637
0.00528681
0.00519193
0.00509265
0.00498985
0.00488433
0.00477684
0.00466805
0.00455855
0.00444886
0.00433944
0.0042307
0.00412296
0.00401651
0.0039116
0.0038084
0.00370704
0.00360763
0.00351019
0.00341475
0.00332127
0.00322971
0.00314002
0.00305213
0.00296599
0.00288155
0.00279875
0.00271754
0.00263785
0.00255965
0.00248286
0.00240746
0.00233339
0.00226062
0.00218912
0.00211883
0.00204974
0.0019818
0.00191499
0.00184926
0.0017846
0.00172097
0.00165835
0.00159669
0.00153598
0.00147618
0.00141727
0.00135924
0.00130209
0.0012458
0.00119032
0.00113556
0.0010814
0.00102777
0.000974838
0.000923029
0.000872997
0.000825185
0.00077913
0.000732697
0.000681515
0.000618921
0.000537361
0.000432834
0.000311713
0.000192864
9.82253e-05
3.89786e-05
1.11178e-05
2.0258e-06
2.00277e-07
8.69725e-09
1.30219e-10
6.36562e-13
1.17519e-13
1.17212e-13
1.17031e-13
1.15664e-13
1.11505e-13
1.04026e-13
9.42486e-14
8.38156e-14
7.39045e-14
6.48866e-14
5.66017e-14
4.87318e-14
4.10195e-14
3.33352e-14
2.56752e-14
1.81612e-14
1.11038e-14
5.16456e-15
1.37744e-15
1.2407e-16
6.33448e-18
4.40568e-18
4.38809e-18
4.38784e-18
4.38783e-18
4.38783e-18
4.38783e-18
4.38783e-18
4.38783e-18
4.38783e-18
4.38783e-18
4.38783e-18
4.38783e-18
4.38783e-18
4.38783e-18
4.38783e-18
4.38783e-18
4.38783e-18
4.38783e-18
4.38783e-18
4.38783e-18
4.38783e-18
0.00583765
0.00583765
0.00583765
0.00583765
0.00583765
0.00583765
0.00583765
0.00583765
0.00583765
0.00583765
0.00583765
0.00583765
0.00583765
0.00583765
0.00583765
0.00583765
0.00583765
0.00583765
0.00583765
0.00583765
0.00583765
0.00583765
0.00583765
0.00583765
0.00583765
0.00583765
0.00583765
0.00583765
0.00583765
0.00583765
0.00583765
0.00583765
0.00583765
0.00583765
0.00583765
0.00583765
0.00583764
0.00583758
0.00583715
0.00583548
0.00583116
0.00582243
0.00580757
0.00578507
0.00575385
0.00571329
0.00566324
0.0056039
0.00553581
0.00545967
0.00537637
0.0052868
0.00519193
0.00509265
0.00498985
0.00488433
0.00477684
0.00466805
0.00455854
0.00444886
0.00433944
0.0042307
0.00412296
0.00401651
0.0039116
0.0038084
0.00370704
0.00360763
0.00351019
0.00341475
0.00332127
0.00322971
0.00314002
0.00305213
0.00296599
0.00288155
0.00279875
0.00271754
0.00263785
0.00255964
0.00248286
0.00240746
0.00233339
0.00226062
0.00218911
0.00211883
0.00204974
0.0019818
0.00191498
0.00184926
0.0017846
0.00172097
0.00165835
0.00159669
0.00153598
0.00147618
0.00141727
0.00135924
0.00130209
0.0012458
0.00119032
0.00113556
0.0010814
0.00102777
0.000974838
0.000923029
0.000872997
0.000825184
0.000779129
0.000732697
0.000681515
0.000618919
0.000537359
0.000432832
0.00031171
0.000192862
9.82239e-05
3.89778e-05
1.11176e-05
2.02576e-06
2.00272e-07
8.69704e-09
1.30217e-10
6.36554e-13
1.1752e-13
1.17212e-13
1.17032e-13
1.15664e-13
1.11506e-13
1.04026e-13
9.4249e-14
8.38159e-14
7.39047e-14
6.48869e-14
5.66019e-14
4.8732e-14
4.10196e-14
3.33353e-14
2.56753e-14
1.81613e-14
1.11038e-14
5.16459e-15
1.37745e-15
1.24072e-16
6.33453e-18
4.40568e-18
4.38809e-18
4.38784e-18
4.38783e-18
4.38783e-18
4.38783e-18
4.38783e-18
4.38783e-18
4.38783e-18
4.38783e-18
4.38783e-18
4.38783e-18
4.38783e-18
4.38783e-18
4.38783e-18
4.38783e-18
4.38783e-18
4.38783e-18
4.38783e-18
4.38783e-18
4.38783e-18
0.00583765
0.00583765
0.00583765
0.00583765
0.00583765
0.00583765
0.00583765
0.00583765
0.00583765
0.00583765
0.00583765
0.00583765
0.00583765
0.00583765
0.00583765
0.00583765
0.00583765
0.00583765
0.00583765
0.00583765
0.00583765
0.00583765
0.00583765
0.00583765
0.00583765
0.00583765
0.00583765
0.00583765
0.00583765
0.00583765
0.00583765
0.00583765
0.00583765
0.00583765
0.00583765
0.00583765
0.00583764
0.00583758
0.00583715
0.00583548
0.00583116
0.00582243
0.00580757
0.00578507
0.00575385
0.00571329
0.00566324
0.0056039
0.0055358
0.00545967
0.00537637
0.0052868
0.00519193
0.00509265
0.00498985
0.00488433
0.00477684
0.00466805
0.00455854
0.00444886
0.00433944
0.00423069
0.00412296
0.00401651
0.0039116
0.0038084
0.00370704
0.00360763
0.00351019
0.00341475
0.00332127
0.00322971
0.00314002
0.00305213
0.00296599
0.00288155
0.00279875
0.00271754
0.00263785
0.00255964
0.00248286
0.00240746
0.00233339
0.00226062
0.00218911
0.00211883
0.00204974
0.0019818
0.00191498
0.00184926
0.0017846
0.00172097
0.00165835
0.00159669
0.00153598
0.00147618
0.00141727
0.00135924
0.00130209
0.00124579
0.00119032
0.00113556
0.0010814
0.00102777
0.000974837
0.000923028
0.000872996
0.000825184
0.000779129
0.000732696
0.000681514
0.000618918
0.000537358
0.00043283
0.000311708
0.000192861
9.82229e-05
3.89774e-05
1.11175e-05
2.02573e-06
2.00269e-07
8.69688e-09
1.30214e-10
6.36545e-13
1.1752e-13
1.17213e-13
1.17032e-13
1.15665e-13
1.11506e-13
1.04027e-13
9.42493e-14
8.38162e-14
7.3905e-14
6.48871e-14
5.66021e-14
4.87322e-14
4.10198e-14
3.33354e-14
2.56754e-14
1.81614e-14
1.11039e-14
5.16463e-15
1.37747e-15
1.24074e-16
6.33457e-18
4.40568e-18
4.38809e-18
4.38784e-18
4.38783e-18
4.38783e-18
4.38783e-18
4.38783e-18
4.38783e-18
4.38783e-18
4.38783e-18
4.38783e-18
4.38783e-18
4.38783e-18
4.38783e-18
4.38783e-18
4.38783e-18
4.38783e-18
4.38783e-18
4.38783e-18
4.38783e-18
4.38783e-18
0.00583765
0.00583765
0.00583765
0.00583765
0.00583765
0.00583765
0.00583765
0.00583765
0.00583765
0.00583765
0.00583765
0.00583765
0.00583765
0.00583765
0.00583765
0.00583765
0.00583765
0.00583765
0.00583765
0.00583765
0.00583765
0.00583765
0.00583765
0.00583765
0.00583765
0.00583765
0.00583765
0.00583765
0.00583765
0.00583765
0.00583765
0.00583765
0.00583765
0.00583765
0.00583765
0.00583765
0.00583764
0.00583758
0.00583715
0.00583548
0.00583116
0.00582243
0.00580757
0.00578507
0.00575385
0.00571329
0.00566324
0.0056039
0.0055358
0.00545967
0.00537637
0.0052868
0.00519193
0.00509265
0.00498985
0.00488433
0.00477684
0.00466805
0.00455854
0.00444886
0.00433944
0.00423069
0.00412296
0.00401651
0.0039116
0.00380839
0.00370704
0.00360763
0.00351019
0.00341475
0.00332127
0.00322971
0.00314002
0.00305213
0.00296599
0.00288155
0.00279875
0.00271754
0.00263785
0.00255964
0.00248286
0.00240746
0.00233339
0.00226062
0.00218911
0.00211883
0.00204973
0.0019818
0.00191498
0.00184926
0.0017846
0.00172097
0.00165835
0.00159669
0.00153598
0.00147618
0.00141727
0.00135924
0.00130208
0.00124579
0.00119032
0.00113556
0.0010814
0.00102777
0.000974837
0.000923028
0.000872996
0.000825183
0.000779129
0.000732696
0.000681513
0.000618918
0.000537357
0.000432829
0.000311707
0.00019286
9.82222e-05
3.89771e-05
1.11174e-05
2.02571e-06
2.00266e-07
8.69678e-09
1.30213e-10
6.36539e-13
1.1752e-13
1.17213e-13
1.17032e-13
1.15665e-13
1.11507e-13
1.04027e-13
9.42496e-14
8.38165e-14
7.39053e-14
6.48873e-14
5.66023e-14
4.87324e-14
4.10199e-14
3.33356e-14
2.56755e-14
1.81614e-14
1.11039e-14
5.16466e-15
1.37748e-15
1.24076e-16
6.33462e-18
4.40568e-18
4.38809e-18
4.38784e-18
4.38783e-18
4.38783e-18
4.38783e-18
4.38783e-18
4.38783e-18
4.38783e-18
4.38783e-18
4.38783e-18
4.38783e-18
4.38783e-18
4.38783e-18
4.38783e-18
4.38783e-18
4.38783e-18
4.38783e-18
4.38783e-18
4.38783e-18
4.38783e-18
0.00583765
0.00583765
0.00583765
0.00583765
0.00583765
0.00583765
0.00583765
0.00583765
0.00583765
0.00583765
0.00583765
0.00583765
0.00583765
0.00583765
0.00583765
0.00583765
0.00583765
0.00583765
0.00583765
0.00583765
0.00583765
0.00583765
0.00583765
0.00583765
0.00583765
0.00583765
0.00583765
0.00583765
0.00583765
0.00583765
0.00583765
0.00583765
0.00583765
0.00583765
0.00583765
0.00583765
0.00583764
0.00583758
0.00583715
0.00583548
0.00583116
0.00582243
0.00580757
0.00578507
0.00575385
0.00571329
0.00566324
0.0056039
0.0055358
0.00545967
0.00537637
0.0052868
0.00519193
0.00509265
0.00498985
0.00488433
0.00477684
0.00466805
0.00455854
0.00444885
0.00433944
0.00423069
0.00412296
0.00401651
0.0039116
0.00380839
0.00370704
0.00360763
0.00351019
0.00341475
0.00332127
0.00322971
0.00314002
0.00305213
0.00296599
0.00288155
0.00279875
0.00271754
0.00263785
0.00255964
0.00248286
0.00240746
0.00233339
0.00226062
0.00218911
0.00211883
0.00204973
0.0019818
0.00191498
0.00184926
0.0017846
0.00172097
0.00165835
0.00159669
0.00153598
0.00147617
0.00141727
0.00135924
0.00130208
0.00124579
0.00119032
0.00113556
0.0010814
0.00102777
0.000974836
0.000923028
0.000872996
0.000825183
0.000779128
0.000732695
0.000681513
0.000618917
0.000537356
0.000432828
0.000311706
0.000192859
9.82217e-05
3.89768e-05
1.11173e-05
2.02569e-06
2.00265e-07
8.69671e-09
1.30211e-10
6.36535e-13
1.17521e-13
1.17213e-13
1.17033e-13
1.15666e-13
1.11507e-13
1.04027e-13
9.42499e-14
8.38167e-14
7.39055e-14
6.48876e-14
5.66026e-14
4.87326e-14
4.10201e-14
3.33357e-14
2.56756e-14
1.81615e-14
1.1104e-14
5.1647e-15
1.37749e-15
1.24078e-16
6.33466e-18
4.40568e-18
4.38809e-18
4.38784e-18
4.38783e-18
4.38783e-18
4.38783e-18
4.38783e-18
4.38783e-18
4.38783e-18
4.38783e-18
4.38783e-18
4.38783e-18
4.38783e-18
4.38783e-18
4.38783e-18
4.38783e-18
4.38783e-18
4.38783e-18
4.38783e-18
4.38783e-18
4.38783e-18
0.00583765
0.00583765
0.00583765
0.00583765
0.00583765
0.00583765
0.00583765
0.00583765
0.00583765
0.00583765
0.00583765
0.00583765
0.00583765
0.00583765
0.00583765
0.00583765
0.00583765
0.00583765
0.00583765
0.00583765
0.00583765
0.00583765
0.00583765
0.00583765
0.00583765
0.00583765
0.00583765
0.00583765
0.00583765
0.00583765
0.00583765
0.00583765
0.00583765
0.00583765
0.00583765
0.00583765
0.00583764
0.00583758
0.00583715
0.00583548
0.00583116
0.00582243
0.00580757
0.00578507
0.00575385
0.00571329
0.00566324
0.0056039
0.0055358
0.00545967
0.00537637
0.0052868
0.00519193
0.00509265
0.00498985
0.00488433
0.00477684
0.00466805
0.00455854
0.00444885
0.00433944
0.00423069
0.00412296
0.00401651
0.0039116
0.00380839
0.00370704
0.00360763
0.00351019
0.00341475
0.00332127
0.00322971
0.00314002
0.00305213
0.00296599
0.00288155
0.00279875
0.00271754
0.00263785
0.00255964
0.00248286
0.00240746
0.00233339
0.00226062
0.00218911
0.00211883
0.00204973
0.0019818
0.00191498
0.00184926
0.0017846
0.00172097
0.00165835
0.00159669
0.00153598
0.00147617
0.00141727
0.00135924
0.00130208
0.00124579
0.00119032
0.00113556
0.0010814
0.00102777
0.000974836
0.000923027
0.000872995
0.000825183
0.000779128
0.000732695
0.000681513
0.000618917
0.000537355
0.000432827
0.000311705
0.000192858
9.82213e-05
3.89766e-05
1.11172e-05
2.02568e-06
2.00263e-07
8.69664e-09
1.3021e-10
6.36531e-13
1.17521e-13
1.17214e-13
1.17033e-13
1.15666e-13
1.11507e-13
1.04028e-13
9.42502e-14
8.3817e-14
7.39058e-14
6.48878e-14
5.66028e-14
4.87327e-14
4.10202e-14
3.33358e-14
2.56757e-14
1.81616e-14
1.1104e-14
5.16473e-15
1.37751e-15
1.2408e-16
6.33469e-18
4.40568e-18
4.38809e-18
4.38784e-18
4.38783e-18
4.38783e-18
4.38783e-18
4.38783e-18
4.38783e-18
4.38783e-18
4.38783e-18
4.38783e-18
4.38783e-18
4.38783e-18
4.38783e-18
4.38783e-18
4.38783e-18
4.38783e-18
4.38783e-18
4.38783e-18
4.38783e-18
4.38783e-18
0.00583765
0.00583765
0.00583765
0.00583765
0.00583765
0.00583765
0.00583765
0.00583765
0.00583765
0.00583765
0.00583765
0.00583765
0.00583765
0.00583765
0.00583765
0.00583765
0.00583765
0.00583765
0.00583765
0.00583765
0.00583765
0.00583765
0.00583765
0.00583765
0.00583765
0.00583765
0.00583765
0.00583765
0.00583765
0.00583765
0.00583765
0.00583765
0.00583765
0.00583765
0.00583765
0.00583765
0.00583764
0.00583758
0.00583715
0.00583548
0.00583116
0.00582243
0.00580757
0.00578507
0.00575385
0.00571329
0.00566324
0.0056039
0.0055358
0.00545967
0.00537637
0.0052868
0.00519193
0.00509265
0.00498985
0.00488433
0.00477684
0.00466805
0.00455854
0.00444885
0.00433944
0.00423069
0.00412296
0.00401651
0.0039116
0.00380839
0.00370704
0.00360763
0.00351019
0.00341475
0.00332126
0.00322971
0.00314002
0.00305213
0.00296599
0.00288155
0.00279875
0.00271754
0.00263785
0.00255964
0.00248286
0.00240746
0.00233339
0.00226062
0.00218911
0.00211883
0.00204973
0.0019818
0.00191498
0.00184926
0.0017846
0.00172097
0.00165835
0.00159669
0.00153598
0.00147617
0.00141727
0.00135924
0.00130208
0.00124579
0.00119032
0.00113556
0.0010814
0.00102777
0.000974836
0.000923027
0.000872995
0.000825182
0.000779128