/*--------------------------------*- C++ -*----------------------------------*\
  =========                 |
  \\      /  F ield         | OpenFOAM: The Open Source CFD Toolbox
   \\    /   O peration     | Website:  https://openfoam.org
    \\  /    A nd           | Version:  13
     \\/     M anipulation  |
\*---------------------------------------------------------------------------*/
FoamFile
{
    format      ascii;
    class       volScalarField;
    location    "0.0009";
    object      H2O;
}
// * * * * * * * * * * * * * * * * * * * * * * * * * * * * * * * * * * * * * //

dimensions      [];

internalField   nonuniform List<scalar> 
33334
(
0.00477923
0.00477923
0.00477923
0.00477923
0.00477923
0.00477923
0.00477923
0.00477923
0.00477923
0.00477923
0.00477923
0.00477923
0.00477923
0.00477923
0.00477923
0.00477923
0.00477923
0.00477923
0.00477923
0.00477923
0.00477923
0.00477923
0.00477923
0.00477923
0.00477923
0.00477923
0.00477923
0.00477923
0.00477923
0.00477923
0.00477923
0.00477923
0.00477923
0.00477923
0.00477923
0.00477923
0.00477923
0.00477918
0.00477882
0.00477746
0.00477392
0.00476678
0.00475461
0.00473619
0.00471063
0.00467743
0.00463645
0.00458787
0.00453212
0.00446979
0.00440159
0.00432827
0.00425059
0.00416931
0.00408515
0.00399876
0.00391076
0.00382169
0.00373204
0.00364224
0.00355266
0.00346363
0.00337543
0.00328828
0.00320239
0.0031179
0.00303492
0.00295353
0.00287376
0.00279561
0.00271908
0.00264412
0.00257069
0.00249874
0.00242821
0.00235908
0.00229129
0.0022248
0.00215956
0.00209553
0.00203267
0.00197093
0.0019103
0.00185072
0.00179217
0.00173463
0.00167806
0.00162244
0.00156774
0.00151393
0.00146099
0.0014089
0.00135762
0.00130714
0.00125744
0.00120848
0.00116025
0.00111274
0.00106594
0.00101986
0.00097444
0.000929607
0.000885262
0.00084136
0.00079802
0.000755604
0.000714645
0.000675504
0.0006378
0.000599782
0.000557865
0.000506592
0.000439782
0.000354172
0.000255003
0.000157733
8.03083e-05
3.18581e-05
9.0836e-06
1.65446e-06
1.63487e-07
7.0956e-09
1.0617e-10
5.19094e-13
9.62196e-14
9.59696e-14
9.58215e-14
9.4701e-14
9.12942e-14
8.51689e-14
7.7163e-14
6.8621e-14
6.05067e-14
5.31237e-14
4.63407e-14
3.98974e-14
3.3583e-14
2.72917e-14
2.10202e-14
1.48683e-14
9.09031e-15
4.22795e-15
1.12758e-15
1.01556e-16
5.18551e-18
3.60688e-18
3.59249e-18
3.59228e-18
3.59228e-18
3.59228e-18
3.59228e-18
3.59228e-18
3.59228e-18
3.59228e-18
3.59228e-18
3.59228e-18
3.59228e-18
3.59228e-18
3.59228e-18
3.59228e-18
3.59228e-18
3.59228e-18
3.59228e-18
3.59228e-18
3.59228e-18
3.59228e-18
0.00477923
0.00477923
0.00477923
0.00477923
0.00477923
0.00477923
0.00477923
0.00477923
0.00477923
0.00477923
0.00477923
0.00477923
0.00477923
0.00477923
0.00477923
0.00477923
0.00477923
0.00477923
0.00477923
0.00477923
0.00477923
0.00477923
0.00477923
0.00477923
0.00477923
0.00477923
0.00477923
0.00477923
0.00477923
0.00477923
0.00477923
0.00477923
0.00477923
0.00477923
0.00477923
0.00477923
0.00477923
0.00477918
0.00477882
0.00477746
0.00477392
0.00476678
0.00475461
0.00473619
0.00471063
0.00467743
0.00463645
0.00458787
0.00453212
0.00446979
0.00440159
0.00432827
0.00425059
0.00416931
0.00408515
0.00399877
0.00391076
0.0038217
0.00373205
0.00364224
0.00355267
0.00346364
0.00337543
0.00328829
0.00320239
0.0031179
0.00303492
0.00295353
0.00287376
0.00279562
0.00271909
0.00264413
0.0025707
0.00249875
0.00242822
0.00235909
0.0022913
0.00222481
0.00215958
0.00209555
0.00203268
0.00197095
0.00191031
0.00185073
0.00179219
0.00173465
0.00167808
0.00162246
0.00156776
0.00151395
0.00146101
0.00140892
0.00135764
0.00130716
0.00125746
0.0012085
0.00116027
0.00111276
0.00106597
0.00101988
0.000974463
0.000929631
0.000885287
0.000841385
0.000798045
0.00075563
0.00071467
0.000675528
0.000637824
0.000599807
0.000557895
0.00050663
0.00043983
0.000354229
0.000255059
0.000157778
8.03361e-05
3.18708e-05
9.0877e-06
1.65531e-06
1.63584e-07
7.10063e-09
1.0626e-10
5.1952e-13
9.62181e-14
9.59677e-14
9.58197e-14
9.46996e-14
9.12934e-14
8.51685e-14
7.71629e-14
6.86209e-14
6.05065e-14
5.31235e-14
4.63405e-14
3.98972e-14
3.35828e-14
2.72915e-14
2.10201e-14
1.48682e-14
9.09029e-15
4.22795e-15
1.12758e-15
1.01558e-16
5.18557e-18
3.60688e-18
3.59249e-18
3.59228e-18
3.59228e-18
3.59228e-18
3.59228e-18
3.59228e-18
3.59228e-18
3.59228e-18
3.59228e-18
3.59228e-18
3.59228e-18
3.59228e-18
3.59228e-18
3.59228e-18
3.59228e-18
3.59228e-18
3.59228e-18
3.59228e-18
3.59228e-18
3.59228e-18
0.00477923
0.00477923
0.00477923
0.00477923
0.00477923
0.00477923
0.00477923
0.00477923
0.00477923
0.00477923
0.00477923
0.00477923
0.00477923
0.00477923
0.00477923
0.00477923
0.00477923
0.00477923
0.00477923
0.00477923
0.00477923
0.00477923
0.00477923
0.00477923
0.00477923
0.00477923
0.00477923
0.00477923
0.00477923
0.00477923
0.00477923
0.00477923
0.00477923
0.00477923
0.00477923
0.00477923
0.00477923
0.00477918
0.00477882
0.00477746
0.00477392
0.00476678
0.00475461
0.00473619
0.00471063
0.00467742
0.00463644
0.00458787
0.00453212
0.00446979
0.00440159
0.00432827
0.00425059
0.00416931
0.00408515
0.00399877
0.00391076
0.0038217
0.00373205
0.00364224
0.00355267
0.00346364
0.00337543
0.00328829
0.0032024
0.0031179
0.00303493
0.00295354
0.00287377
0.00279563
0.00271909
0.00264414
0.00257071
0.00249875
0.00242823
0.0023591
0.00229131
0.00222483
0.00215959
0.00209556
0.00203269
0.00197096
0.00191032
0.00185075
0.0017922
0.00173466
0.00167809
0.00162247
0.00156777
0.00151397
0.00146103
0.00140894
0.00135766
0.00130719
0.00125748
0.00120852
0.00116029
0.00111278
0.00106599
0.00101991
0.000974489
0.000929658
0.000885314
0.000841413
0.000798074
0.000755658
0.000714698
0.000675556
0.000637851
0.000599836
0.000557929
0.000506675
0.00043989
0.000354302
0.000255134
0.000157841
8.03771e-05
3.18908e-05
9.09446e-06
1.65674e-06
1.63747e-07
7.10874e-09
1.06399e-10
5.20152e-13
9.62149e-14
9.5964e-14
9.58161e-14
9.46964e-14
9.1291e-14
8.51669e-14
7.71617e-14
6.86199e-14
6.05056e-14
5.31226e-14
4.63397e-14
3.98965e-14
3.35823e-14
2.72911e-14
2.10198e-14
1.48681e-14
9.09024e-15
4.22795e-15
1.12759e-15
1.0156e-16
5.18563e-18
3.60688e-18
3.59249e-18
3.59228e-18
3.59228e-18
3.59228e-18
3.59228e-18
3.59228e-18
3.59228e-18
3.59228e-18
3.59228e-18
3.59228e-18
3.59228e-18
3.59228e-18
3.59228e-18
3.59228e-18
3.59228e-18
3.59228e-18
3.59228e-18
3.59228e-18
3.59228e-18
3.59228e-18
0.00477923
0.00477923
0.00477923
0.00477923
0.00477923
0.00477923
0.00477923
0.00477923
0.00477923
0.00477923
0.00477923
0.00477923
0.00477923
0.00477923
0.00477923
0.00477923
0.00477923
0.00477923
0.00477923
0.00477923
0.00477923
0.00477923
0.00477923
0.00477923
0.00477923
0.00477923
0.00477923
0.00477923
0.00477923
0.00477923
0.00477923
0.00477923
0.00477923
0.00477923
0.00477923
0.00477923
0.00477923
0.00477918
0.00477882
0.00477746
0.00477392
0.00476678
0.00475461
0.00473619
0.00471063
0.00467742
0.00463644
0.00458787
0.00453212
0.00446979
0.00440159
0.00432826
0.00425059
0.00416931
0.00408515
0.00399877
0.00391076
0.0038217
0.00373205
0.00364224
0.00355267
0.00346364
0.00337543
0.00328829
0.0032024
0.0031179
0.00303493
0.00295354
0.00287377
0.00279563
0.0027191
0.00264414
0.00257071
0.00249876
0.00242823
0.0023591
0.00229132
0.00222483
0.00215959
0.00209556
0.0020327
0.00197097
0.00191033
0.00185075
0.00179221
0.00173467
0.0016781
0.00162248
0.00156778
0.00151398
0.00146104
0.00140895
0.00135767
0.0013072
0.00125749
0.00120853
0.0011603
0.00111279
0.001066
0.00101992
0.000974502
0.000929671
0.000885328
0.000841427
0.000798088
0.000755673
0.000714713
0.000675569
0.000637865
0.000599851
0.000557948
0.0005067
0.000439925
0.000354346
0.000255183
0.000157883
8.04061e-05
3.19056e-05
9.09972e-06
1.6579e-06
1.63882e-07
7.11551e-09
1.06515e-10
5.20676e-13
9.62122e-14
9.59609e-14
9.5813e-14
9.46936e-14
9.12887e-14
8.51651e-14
7.71603e-14
6.86188e-14
6.05046e-14
5.31218e-14
4.6339e-14
3.9896e-14
3.35819e-14
2.72909e-14
2.10197e-14
1.48681e-14
9.09025e-15
4.22798e-15
1.12761e-15
1.01563e-16
5.18569e-18
3.60689e-18
3.59249e-18
3.59228e-18
3.59228e-18
3.59228e-18
3.59228e-18
3.59228e-18
3.59228e-18
3.59228e-18
3.59228e-18
3.59228e-18
3.59228e-18
3.59228e-18
3.59228e-18
3.59228e-18
3.59228e-18
3.59228e-18
3.59228e-18
3.59228e-18
3.59228e-18
3.59228e-18
0.00477923
0.00477923
0.00477923
0.00477923
0.00477923
0.00477923
0.00477923
0.00477923
0.00477923
0.00477923
0.00477923
0.00477923
0.00477923
0.00477923
0.00477923
0.00477923
0.00477923
0.00477923
0.00477923
0.00477923
0.00477923
0.00477923
0.00477923
0.00477923
0.00477923
0.00477923
0.00477923
0.00477923
0.00477923
0.00477923
0.00477923
0.00477923
0.00477923
0.00477923
0.00477923
0.00477923
0.00477923
0.00477918
0.00477882
0.00477746
0.00477392
0.00476678
0.00475461
0.00473619
0.00471063
0.00467742
0.00463644
0.00458787
0.00453212
0.00446979
0.00440159
0.00432826
0.00425059
0.00416931
0.00408515
0.00399876
0.00391076
0.00382169
0.00373204
0.00364224
0.00355267
0.00346364
0.00337543
0.00328829
0.0032024
0.0031179
0.00303493
0.00295354
0.00287377
0.00279563
0.0027191
0.00264414
0.00257071
0.00249876
0.00242823
0.0023591
0.00229132
0.00222483
0.00215959
0.00209556
0.0020327
0.00197097
0.00191033
0.00185075
0.00179221
0.00173467
0.0016781
0.00162248
0.00156778
0.00151398
0.00146104
0.00140895
0.00135767
0.0013072
0.00125749
0.00120853
0.0011603
0.0011128
0.00106601
0.00101992
0.000974505
0.000929674
0.000885332
0.000841431
0.000798092
0.000755677
0.000714717
0.000675573
0.000637869
0.000599855
0.000557953
0.000506708
0.000439937
0.000354362
0.000255201
0.0001579
8.04179e-05
3.19119e-05
9.10203e-06
1.65844e-06
1.63948e-07
7.11903e-09
1.06579e-10
5.20972e-13
9.6211e-14
9.59594e-14
9.58116e-14
9.46923e-14
9.12876e-14
8.51642e-14
7.71597e-14
6.86183e-14
6.05043e-14
5.31215e-14
4.63388e-14
3.98959e-14
3.35819e-14
2.72908e-14
2.10197e-14
1.48681e-14
9.09029e-15
4.22801e-15
1.12763e-15
1.01565e-16
5.18574e-18
3.60689e-18
3.59249e-18
3.59228e-18
3.59228e-18
3.59228e-18
3.59228e-18
3.59228e-18
3.59228e-18
3.59228e-18
3.59228e-18
3.59228e-18
3.59228e-18
3.59228e-18
3.59228e-18
3.59228e-18
3.59228e-18
3.59228e-18
3.59228e-18
3.59228e-18
3.59228e-18
3.59228e-18
0.00477923
0.00477923
0.00477923
0.00477923
0.00477923
0.00477923
0.00477923
0.00477923
0.00477923
0.00477923
0.00477923
0.00477923
0.00477923
0.00477923
0.00477923
0.00477923
0.00477923
0.00477923
0.00477923
0.00477923
0.00477923
0.00477923
0.00477923
0.00477923
0.00477923
0.00477923
0.00477923
0.00477923
0.00477923
0.00477923
0.00477923
0.00477923
0.00477923
0.00477923
0.00477923
0.00477923
0.00477923
0.00477918
0.00477882
0.00477746
0.00477392
0.00476678
0.00475461
0.00473619
0.00471063
0.00467742
0.00463644
0.00458787
0.00453212
0.00446979
0.00440159
0.00432826
0.00425059
0.00416931
0.00408515
0.00399876
0.00391076
0.00382169
0.00373204
0.00364224
0.00355267
0.00346364
0.00337543
0.00328829
0.00320239
0.0031179
0.00303493
0.00295354
0.00287377
0.00279563
0.00271909
0.00264414
0.00257071
0.00249876
0.00242823
0.0023591
0.00229132
0.00222483
0.00215959
0.00209556
0.0020327
0.00197097
0.00191033
0.00185075
0.00179221
0.00173467
0.0016781
0.00162248
0.00156778
0.00151398
0.00146104
0.00140895
0.00135767
0.0013072
0.00125749
0.00120853
0.00116031
0.0011128
0.00106601
0.00101992
0.000974505
0.000929675
0.000885332
0.000841432
0.000798093
0.000755678
0.000714717
0.000675573
0.000637869
0.000599855
0.000557954
0.00050671
0.000439939
0.000354365
0.000255205
0.000157903
8.04204e-05
3.19132e-05
9.10259e-06
1.65858e-06
1.63968e-07
7.12024e-09
1.06602e-10
5.21093e-13
9.62108e-14
9.59591e-14
9.58113e-14
9.4692e-14
9.12874e-14
8.51641e-14
7.71596e-14
6.86182e-14
6.05042e-14
5.31215e-14
4.63388e-14
3.98959e-14
3.35819e-14
2.72909e-14
2.10198e-14
1.48682e-14
9.09035e-15
4.22805e-15
1.12764e-15
1.01567e-16
5.1858e-18
3.60689e-18
3.59249e-18
3.59228e-18
3.59228e-18
3.59228e-18
3.59228e-18
3.59228e-18
3.59228e-18
3.59228e-18
3.59228e-18
3.59228e-18
3.59228e-18
3.59228e-18
3.59228e-18
3.59228e-18
3.59228e-18
3.59228e-18
3.59228e-18
3.59228e-18
3.59228e-18
3.59228e-18
0.00477923
0.00477923
0.00477923
0.00477923
0.00477923
0.00477923
0.00477923
0.00477923
0.00477923
0.00477923
0.00477923
0.00477923
0.00477923
0.00477923
0.00477923
0.00477923
0.00477923
0.00477923
0.00477923
0.00477923
0.00477923
0.00477923
0.00477923
0.00477923
0.00477923
0.00477923
0.00477923
0.00477923
0.00477923
0.00477923
0.00477923
0.00477923
0.00477923
0.00477923
0.00477923
0.00477923
0.00477923
0.00477918
0.00477882
0.00477746
0.00477392
0.00476678
0.00475461
0.00473619
0.00471063
0.00467742
0.00463644
0.00458787
0.00453212
0.00446979
0.00440159
0.00432826
0.00425059
0.00416931
0.00408515
0.00399876
0.00391076
0.00382169
0.00373204
0.00364224
0.00355266
0.00346364
0.00337543
0.00328829
0.00320239
0.0031179
0.00303493
0.00295353
0.00287377
0.00279563
0.00271909
0.00264414
0.00257071
0.00249875
0.00242823
0.0023591
0.00229132
0.00222483
0.00215959
0.00209556
0.0020327
0.00197097
0.00191033
0.00185075
0.00179221
0.00173467
0.0016781
0.00162248
0.00156778
0.00151398
0.00146104
0.00140895
0.00135767
0.0013072
0.00125749
0.00120853
0.00116031
0.0011128
0.00106601
0.00101992
0.000974505
0.000929675
0.000885332
0.000841432
0.000798093
0.000755678
0.000714717
0.000675573
0.000637869
0.000599855
0.000557954
0.000506709
0.000439938
0.000354365
0.000255204
0.000157903
8.04203e-05
3.19132e-05
9.10263e-06
1.6586e-06
1.63972e-07
7.12052e-09
1.06609e-10
5.21131e-13
9.62109e-14
9.59592e-14
9.58113e-14
9.46921e-14
9.12875e-14
8.51642e-14
7.71596e-14
6.86183e-14
6.05043e-14
5.31216e-14
4.63389e-14
3.9896e-14
3.3582e-14
2.7291e-14
2.10199e-14
1.48682e-14
9.0904e-15
4.22808e-15
1.12766e-15
1.0157e-16
5.18585e-18
3.60689e-18
3.59249e-18
3.59228e-18
3.59228e-18
3.59228e-18
3.59228e-18
3.59228e-18
3.59228e-18
3.59228e-18
3.59228e-18
3.59228e-18
3.59228e-18
3.59228e-18
3.59228e-18
3.59228e-18
3.59228e-18
3.59228e-18
3.59228e-18
3.59228e-18
3.59228e-18
3.59228e-18
0.00477923
0.00477923
0.00477923
0.00477923
0.00477923
0.00477923
0.00477923
0.00477923
0.00477923
0.00477923
0.00477923
0.00477923
0.00477923
0.00477923
0.00477923
0.00477923
0.00477923
0.00477923
0.00477923
0.00477923
0.00477923
0.00477923
0.00477923
0.00477923
0.00477923
0.00477923
0.00477923
0.00477923
0.00477923
0.00477923
0.00477923
0.00477923
0.00477923
0.00477923
0.00477923
0.00477923
0.00477923
0.00477918
0.00477882
0.00477746
0.00477392
0.00476678
0.00475461
0.00473619
0.00471063
0.00467742
0.00463644
0.00458787
0.00453212
0.00446979
0.00440159
0.00432826
0.00425059
0.00416931
0.00408515
0.00399876
0.00391076
0.00382169
0.00373204
0.00364224
0.00355266
0.00346363
0.00337543
0.00328829
0.00320239
0.0031179
0.00303492
0.00295353
0.00287377
0.00279563
0.00271909
0.00264414
0.00257071
0.00249875
0.00242823
0.0023591
0.00229132
0.00222483
0.00215959
0.00209556
0.0020327
0.00197097
0.00191033
0.00185075
0.00179221
0.00173467
0.0016781
0.00162248
0.00156778
0.00151398
0.00146104
0.00140895
0.00135767
0.0013072
0.00125749
0.00120853
0.0011603
0.0011128
0.00106601
0.00101992
0.000974505
0.000929674
0.000885332
0.000841431
0.000798092
0.000755677
0.000714716
0.000675573
0.000637868
0.000599854
0.000557953
0.000506708
0.000439937
0.000354363
0.000255202
0.000157901
8.04193e-05
3.19129e-05
9.10254e-06
1.65859e-06
1.63972e-07
7.12056e-09
1.06611e-10
5.21143e-13
9.62112e-14
9.59594e-14
9.58116e-14
9.46923e-14
9.12877e-14
8.51644e-14
7.71599e-14
6.86185e-14
6.05045e-14
5.31218e-14
4.63391e-14
3.98961e-14
3.35821e-14
2.72911e-14
2.10199e-14
1.48683e-14
9.09045e-15
4.22812e-15
1.12767e-15
1.01572e-16
5.18589e-18
3.60689e-18
3.59249e-18
3.59228e-18
3.59228e-18
3.59228e-18
3.59228e-18
3.59228e-18
3.59228e-18
3.59228e-18
3.59228e-18
3.59228e-18
3.59228e-18
3.59228e-18
3.59228e-18
3.59228e-18
3.59228e-18
3.59228e-18
3.59228e-18
3.59228e-18
3.59228e-18
3.59228e-18
0.00477923
0.00477923
0.00477923
0.00477923
0.00477923
0.00477923
0.00477923
0.00477923
0.00477923
0.00477923
0.00477923
0.00477923
0.00477923
0.00477923
0.00477923
0.00477923
0.00477923
0.00477923
0.00477923
0.00477923
0.00477923
0.00477923
0.00477923
0.00477923
0.00477923
0.00477923
0.00477923
0.00477923
0.00477923
0.00477923
0.00477923
0.00477923
0.00477923
0.00477923
0.00477923
0.00477923
0.00477923
0.00477918
0.00477882
0.00477746
0.00477392
0.00476678
0.00475461
0.00473619
0.00471063
0.00467742
0.00463644
0.00458787
0.00453212
0.00446979
0.00440158
0.00432826
0.00425059
0.00416931
0.00408515
0.00399876
0.00391076
0.00382169
0.00373204
0.00364224
0.00355266
0.00346363
0.00337543
0.00328829
0.00320239
0.0031179
0.00303492
0.00295353
0.00287377
0.00279562
0.00271909
0.00264414
0.00257071
0.00249875
0.00242823
0.0023591
0.00229131
0.00222483
0.00215959
0.00209556
0.0020327
0.00197097
0.00191033
0.00185075
0.00179221
0.00173467
0.0016781
0.00162248
0.00156778
0.00151398
0.00146104
0.00140895
0.00135767
0.0013072
0.00125749
0.00120853
0.0011603
0.0011128
0.00106601
0.00101992
0.000974505
0.000929674
0.000885331
0.000841431
0.000798092
0.000755677
0.000714716
0.000675572
0.000637868
0.000599854
0.000557952
0.000506706
0.000439935
0.00035436
0.000255199
0.000157899
8.04178e-05
3.19122e-05
9.10233e-06
1.65856e-06
1.63969e-07
7.12051e-09
1.06611e-10
5.21149e-13
9.62116e-14
9.59598e-14
9.58119e-14
9.46927e-14
9.12881e-14
8.51648e-14
7.71602e-14
6.86188e-14
6.05047e-14
5.31219e-14
4.63392e-14
3.98962e-14
3.35822e-14
2.72912e-14
2.102e-14
1.48683e-14
9.0905e-15
4.22815e-15
1.12768e-15
1.01573e-16
5.18594e-18
3.60689e-18
3.59249e-18
3.59228e-18
3.59228e-18
3.59228e-18
3.59228e-18
3.59228e-18
3.59228e-18
3.59228e-18
3.59228e-18
3.59228e-18
3.59228e-18
3.59228e-18
3.59228e-18
3.59228e-18
3.59228e-18
3.59228e-18
3.59228e-18
3.59228e-18
3.59228e-18
3.59228e-18
0.00477923
0.00477923
0.00477923
0.00477923
0.00477923
0.00477923
0.00477923
0.00477923
0.00477923
0.00477923
0.00477923
0.00477923
0.00477923
0.00477923
0.00477923
0.00477923
0.00477923
0.00477923
0.00477923
0.00477923
0.00477923
0.00477923
0.00477923
0.00477923
0.00477923
0.00477923
0.00477923
0.00477923
0.00477923
0.00477923
0.00477923
0.00477923
0.00477923
0.00477923
0.00477923
0.00477923
0.00477923
0.00477918
0.00477882
0.00477745
0.00477392
0.00476678
0.00475461
0.00473619
0.00471063
0.00467742
0.00463644
0.00458787
0.00453212
0.00446979
0.00440158
0.00432826
0.00425059
0.00416931
0.00408515
0.00399876
0.00391076
0.00382169
0.00373204
0.00364224
0.00355266
0.00346363
0.00337543
0.00328829
0.00320239
0.0031179
0.00303492
0.00295353
0.00287377
0.00279562
0.00271909
0.00264414
0.00257071
0.00249875
0.00242823
0.0023591
0.00229131
0.00222483
0.00215959
0.00209556
0.0020327
0.00197097
0.00191033
0.00185075
0.00179221
0.00173467
0.0016781
0.00162248
0.00156778
0.00151398
0.00146104
0.00140895
0.00135767
0.0013072
0.00125749
0.00120853
0.0011603
0.0011128
0.00106601
0.00101992
0.000974504
0.000929674
0.000885331
0.00084143
0.000798091
0.000755676
0.000714715
0.000675572
0.000637867
0.000599853
0.000557951
0.000506705
0.000439933
0.000354357
0.000255196
0.000157896
8.04162e-05
3.19114e-05
9.10208e-06
1.65851e-06
1.63965e-07
7.12036e-09
1.06609e-10
5.21148e-13
9.6212e-14
9.59602e-14
9.58124e-14
9.46931e-14
9.12885e-14
8.51651e-14
7.71605e-14
6.86191e-14
6.05049e-14
5.31221e-14
4.63393e-14
3.98963e-14
3.35823e-14
2.72912e-14
2.10201e-14
1.48684e-14
9.09054e-15
4.22818e-15
1.1277e-15
1.01575e-16
5.18598e-18
3.60689e-18
3.59249e-18
3.59228e-18
3.59228e-18
3.59228e-18
3.59228e-18
3.59228e-18
3.59228e-18
3.59228e-18
3.59228e-18
3.59228e-18
3.59228e-18
3.59228e-18
3.59228e-18
3.59228e-18
3.59228e-18
3.59228e-18
3.59228e-18
3.59228e-18
3.59228e-18
3.59228e-18
0.00477923
0.00477923
0.00477923
0.00477923
0.00477923
0.00477923
0.00477923
0.00477923
0.00477923
0.00477923
0.00477923
0.00477923
0.00477923
0.00477923
0.00477923
0.00477923
0.00477923
0.00477923
0.00477923
0.00477923
0.00477923
0.00477923
0.00477923
0.00477923
0.00477923
0.00477923
0.00477923
0.00477923
0.00477923
0.00477923
0.00477923
0.00477923
0.00477923
0.00477923
0.00477923
0.00477923
0.00477923
0.00477918
0.00477882
0.00477745
0.00477392
0.00476678
0.00475461
0.00473619
0.00471063
0.00467742
0.00463644
0.00458787
0.00453211
0.00446979
0.00440158
0.00432826
0.00425058
0.00416931
0.00408515
0.00399876
0.00391076
0.00382169
0.00373204
0.00364224
0.00355266
0.00346363
0.00337543
0.00328828
0.00320239
0.0031179
0.00303492
0.00295353
0.00287376
0.00279562
0.00271909
0.00264413
0.00257071
0.00249875
0.00242823
0.0023591
0.00229131
0.00222483
0.00215959
0.00209556
0.0020327
0.00197096
0.00191033
0.00185075
0.00179221
0.00173467
0.0016781
0.00162248
0.00156778
0.00151398
0.00146104
0.00140895
0.00135767
0.0013072
0.00125749
0.00120853
0.0011603
0.0011128
0.00106601
0.00101992
0.000974504
0.000929673
0.00088533
0.00084143
0.000798091
0.000755676
0.000714715
0.000675571
0.000637866
0.000599852
0.00055795
0.000506704
0.000439931
0.000354355
0.000255194
0.000157895
8.0415e-05
3.19108e-05
9.10189e-06
1.65847e-06
1.63961e-07
7.12019e-09
1.06607e-10
5.21141e-13
9.62124e-14
9.59606e-14
9.58127e-14
9.46935e-14
9.12888e-14
8.51655e-14
7.71608e-14
6.86193e-14
6.05052e-14
5.31223e-14
4.63395e-14
3.98965e-14
3.35824e-14
2.72913e-14
2.10202e-14
1.48685e-14
9.09059e-15
4.22821e-15
1.12771e-15
1.01577e-16
5.18602e-18
3.60689e-18
3.59249e-18
3.59228e-18
3.59228e-18
3.59228e-18
3.59228e-18
3.59228e-18
3.59228e-18
3.59228e-18
3.59228e-18
3.59228e-18
3.59228e-18
3.59228e-18
3.59228e-18
3.59228e-18
3.59228e-18
3.59228e-18
3.59228e-18
3.59228e-18
3.59228e-18
3.59228e-18
0.00477923
0.00477923
0.00477923
0.00477923
0.00477923
0.00477923
0.00477923
0.00477923
0.00477923
0.00477923
0.00477923
0.00477923
0.00477923
0.00477923
0.00477923
0.00477923
0.00477923
0.00477923
0.00477923
0.00477923
0.00477923
0.00477923
0.00477923
0.00477923
0.00477923
0.00477923
0.00477923
0.00477923
0.00477923
0.00477923
0.00477923
0.00477923
0.00477923
0.00477923
0.00477923
0.00477923
0.00477923
0.00477918
0.00477882
0.00477745
0.00477392
0.00476678
0.00475461
0.00473619
0.00471063
0.00467742
0.00463644
0.00458786
0.00453211
0.00446979
0.00440158
0.00432826
0.00425058
0.00416931
0.00408515
0.00399876
0.00391076
0.00382169
0.00373204
0.00364224
0.00355266
0.00346363
0.00337543
0.00328828
0.00320239
0.0031179
0.00303492
0.00295353
0.00287376
0.00279562
0.00271909
0.00264413
0.0025707
0.00249875
0.00242823
0.0023591
0.00229131
0.00222483
0.00215959
0.00209556
0.0020327
0.00197096
0.00191033
0.00185075
0.00179221
0.00173467
0.0016781
0.00162248
0.00156778
0.00151398
0.00146104
0.00140895
0.00135767
0.0013072
0.00125749
0.00120853
0.0011603
0.0011128
0.00106601
0.00101992
0.000974504
0.000929673
0.00088533
0.00084143
0.000798091
0.000755675
0.000714714
0.000675571
0.000637866
0.000599852
0.000557949
0.000506703
0.00043993
0.000354354
0.000255193
0.000157893
8.04142e-05
3.19104e-05
9.10176e-06
1.65844e-06
1.63958e-07
7.12006e-09
1.06605e-10
5.21134e-13
9.62127e-14
9.59609e-14
9.5813e-14
9.46938e-14
9.12892e-14
8.51658e-14
7.71611e-14
6.86196e-14
6.05054e-14
5.31225e-14
4.63397e-14
3.98966e-14
3.35825e-14
2.72914e-14
2.10202e-14
1.48685e-14
9.09064e-15
4.22824e-15
1.12772e-15
1.01579e-16
5.18606e-18
3.60689e-18
3.59249e-18
3.59228e-18
3.59228e-18
3.59228e-18
3.59228e-18
3.59228e-18
3.59228e-18
3.59228e-18
3.59228e-18
3.59228e-18
3.59228e-18
3.59228e-18
3.59228e-18
3.59228e-18
3.59228e-18
3.59228e-18
3.59228e-18
3.59228e-18
3.59228e-18
3.59228e-18
0.00477923
0.00477923
0.00477923
0.00477923
0.00477923
0.00477923
0.00477923
0.00477923
0.00477923
0.00477923
0.00477923
0.00477923
0.00477923
0.00477923
0.00477923
0.00477923
0.00477923
0.00477923
0.00477923
0.00477923
0.00477923
0.00477923
0.00477923
0.00477923
0.00477923
0.00477923
0.00477923
0.00477923
0.00477923
0.00477923
0.00477923
0.00477923
0.00477923
0.00477923
0.00477923
0.00477923
0.00477923
0.00477918
0.00477882
0.00477745
0.00477392
0.00476678
0.00475461
0.00473619
0.00471063
0.00467742
0.00463644
0.00458786
0.00453211
0.00446979
0.00440158
0.00432826
0.00425058
0.00416931
0.00408515
0.00399876
0.00391076
0.00382169
0.00373204
0.00364224
0.00355266
0.00346363
0.00337543
0.00328828
0.00320239
0.0031179
0.00303492
0.00295353
0.00287376
0.00279562
0.00271909
0.00264413
0.0025707
0.00249875
0.00242823
0.0023591
0.00229131
0.00222483
0.00215959
0.00209556
0.0020327
0.00197096
0.00191033
0.00185075
0.00179221
0.00173467
0.0016781
0.00162248
0.00156778
0.00151398
0.00146104
0.00140895
0.00135767
0.0013072
0.00125749
0.00120853
0.0011603
0.0011128
0.00106601
0.00101992
0.000974503
0.000929673
0.00088533
0.000841429
0.00079809
0.000755675
0.000714714
0.00067557
0.000637866
0.000599852
0.000557949
0.000506702
0.000439929
0.000354353
0.000255192
0.000157892
8.04137e-05
3.19102e-05
9.10168e-06
1.65843e-06
1.63956e-07
7.11998e-09
1.06604e-10
5.21129e-13
9.6213e-14
9.59612e-14
9.58133e-14
9.46941e-14
9.12894e-14
8.5166e-14
7.71613e-14
6.86198e-14
6.05056e-14
5.31227e-14
4.63398e-14
3.98968e-14
3.35826e-14
2.72915e-14
2.10203e-14
1.48686e-14
9.09068e-15
4.22826e-15
1.12773e-15
1.0158e-16
5.18609e-18
3.60689e-18
3.59249e-18
3.59228e-18
3.59228e-18
3.59228e-18
3.59228e-18
3.59228e-18
3.59228e-18
3.59228e-18
3.59228e-18
3.59228e-18
3.59228e-18
3.59228e-18
3.59228e-18
3.59228e-18
3.59228e-18
3.59228e-18
3.59228e-18
3.59228e-18
3.59228e-18
3.59228e-18
0.00477923
0.00477923
0.00477923
0.00477923
0.00477923
0.00477923
0.00477923
0.00477923
0.00477923
0.00477923
0.00477923
0.00477923
0.00477923
0.00477923
0.00477923
0.00477923
0.00477923
0.00477923
0.00477923
0.00477923
0.00477923
0.00477923
0.00477923
0.00477923
0.00477923
0.00477923
0.00477923
0.00477923
0.00477923
0.00477923
0.00477923
0.00477923
0.00477923
0.00477923
0.00477923
0.00477923
0.00477923
0.00477918
0.00477882
0.00477745
0.00477392
0.00476678
0.00475461
0.00473619
0.00471063
0.00467742
0.00463644
0.00458786
0.00453211
0.00446979
0.00440158
0.00432826
0.00425058
0.00416931
0.00408514
0.00399876
0.00391076
0.00382169
0.00373204
0.00364224
0.00355266
0.00346363
0.00337543
0.00328828
0.00320239
0.0031179
0.00303492
0.00295353
0.00287376
0.00279562
0.00271909
0.00264413
0.0025707
0.00249875
0.00242823
0.0023591
0.00229131
0.00222482
0.00215959
0.00209556
0.0020327
0.00197096
0.00191033
0.00185075
0.00179221
0.00173467
0.0016781
0.00162248
0.00156778
0.00151398
0.00146104
0.00140895
0.00135767
0.0013072
0.00125749
0.00120853
0.0011603
0.0011128
0.00106601
0.00101992
0.000974503
0.000929672
0.000885329
0.000841429
0.00079809
0.000755675
0.000714714
0.00067557
0.000637865
0.000599851
0.000557949
0.000506702
0.000439929
0.000354352
0.000255191
0.000157892
8.04133e-05
3.191e-05
9.10162e-06
1.65841e-06
1.63955e-07
7.11992e-09
1.06603e-10
5.21125e-13
9.62132e-14
9.59615e-14
9.58136e-14
9.46944e-14
9.12897e-14
8.51663e-14
7.71616e-14
6.862e-14
6.05058e-14
5.31229e-14
4.634e-14
3.98969e-14
3.35828e-14
2.72917e-14
2.10204e-14
1.48687e-14
9.09073e-15
4.22829e-15
1.12774e-15
1.01582e-16
5.18613e-18
3.60689e-18
3.59249e-18
3.59228e-18
3.59228e-18
3.59228e-18
3.59228e-18
3.59228e-18
3.59228e-18
3.59228e-18
3.59228e-18
3.59228e-18
3.59228e-18
3.59228e-18
3.59228e-18
3.59228e-18
3.59228e-18
3.59228e-18
3.59228e-18
3.59228e-18
3.59228e-18
3.59228e-18
0.00477923
0.00477923
0.00477923
0.00477923
0.00477923
0.00477923
0.00477923
0.00477923
0.00477923
0.00477923
0.00477923
0.00477923
0.00477923
0.00477923
0.00477923
0.00477923
0.00477923
0.00477923
0.00477923
0.00477923
0.00477923
0.00477923
0.00477923
0.00477923
0.00477923
0.00477923
0.00477923
0.00477923
0.00477923
0.00477923
0.00477923
0.00477923
0.00477923
0.00477923
0.00477923
0.00477923
0.00477923
0.00477918
0.00477882
0.00477745
0.00477392
0.00476678
0.00475461
0.00473619
0.00471063
0.00467742
0.00463644
0.00458786
0.00453211
0.00446979
0.00440158
0.00432826
0.00425058
0.00416931
0.00408514
0.00399876
0.00391076
0.00382169
0.00373204
0.00364224
0.00355266
0.00346363
0.00337543
0.00328828
0.00320239
0.0031179
0.00303492
0.00295353
0.00287376
0.00279562
0.00271909
0.00264413
0.0025707
0.00249875
0.00242823
0.0023591
0.00229131
0.00222482
0.00215959
0.00209556
0.0020327
0.00197096
0.00191033
0.00185075
0.00179221
0.00173467
0.0016781
0.00162248
0.00156778
0.00151398
0.00146104
0.00140895
0.00135767
0.0013072
0.00125749
0.00120853
0.0011603
0.0011128
0.00106601
0.00101992
0.000974503
0.000929672
0.000885329
0.000841429
0.00079809
0.000755674
0.000714714
0.00067557
0.000637865
0.000599851
0.000557948
0.000506702
0.000439928
0.000354352
0.00025519
0.000157891
8.04129e-05
3.19098e-05
9.10156e-06
1.6584e-06
1.63954e-07
7.11987e-09
1.06602e-10
5.21122e-13
9.62135e-14
9.59617e-14
9.58139e-14
9.46947e-14
9.129e-14
8.51665e-14
7.71618e-14
6.86202e-14
6.0506e-14
5.31231e-14
4.63402e-14
3.98971e-14
3.35829e-14
2.72918e-14
2.10205e-14
1.48687e-14
9.09078e-15
4.22832e-15
1.12775e-15
1.01583e-16
5.18616e-18
3.60689e-18
3.59249e-18
3.59228e-18
3.59228e-18
3.59228e-18
3.59228e-18
3.59228e-18
3.59228e-18
3.59228e-18
3.59228e-18
3.59228e-18
3.59228e-18
3.59228e-18
3.59228e-18
3.59228e-18
3.59228e-18
3.59228e-18
3.59228e-18
3.59228e-18
3.59228e-18
3.59228e-18
0.00477923
0.00477923
0.00477923
0.00477923
0.00477923
0.00477923
0.00477923
0.00477923
0.00477923
0.00477923
0.00477923
0.00477923
0.00477923
0.00477923
0.00477923
0.00477923
0.00477923
0.00477923
0.00477923
0.00477923
0.00477923
0.00477923
0.00477923
0.00477923
0.00477923
0.00477923
0.00477923
0.00477923
0.00477923
0.00477923
0.00477923
0.00477923
0.00477923
0.00477923
0.00477923
0.00477923
0.00477923
0.00477918
0.00477882
0.00477745
0.00477392
0.00476678
0.00475461
0.00473619
0.00471063
0.00467742
0.00463644
0.00458786
0.00453211
0.00446979
0.00440158
0.00432826
0.00425058
0.00416931
0.00408514
0.00399876
0.00391076
0.00382169
0.00373204
0.00364224
0.00355266
0.00346363
0.00337543
0.00328828
0.00320239
0.0031179
0.00303492
0.00295353
0.00287376
0.00279562
0.00271909
0.00264413
0.0025707
0.00249875
0.00242823
0.0023591
0.00229131
0.00222482
0.00215959
0.00209556
0.0020327
0.00197096
0.00191033
0.00185075
0.00179221
0.00173467
0.0016781
0.00162248
0.00156778
0.00151398
0.00146104
0.00140895
0.00135767
0.0013072
0.00125749
0.00120853
0.0011603
0.0011128
0.001066
0.00101992
0.000974503
0.000929672
0.000885329
0.000841429