/*--------------------------------*- C++ -*----------------------------------*\
  =========                 |
  \\      /  F ield         | OpenFOAM: The Open Source CFD Toolbox
   \\    /   O peration     | Website:  https://openfoam.org
    \\  /    A nd           | Version:  13
     \\/     M anipulation  |
\*---------------------------------------------------------------------------*/
FoamFile
{
    format      ascii;
    class       surfaceScalarField;
    location    "0.0009";
    object      phi;
}
// * * * * * * * * * * * * * * * * * * * * * * * * * * * * * * * * * * * * * //

dimensions      [1 0 -1 0 0 0 0];

internalField   nonuniform List<scalar> 
66301
(
2.22045e-16
-2.22045e-16
-2.22045e-16
-4.44089e-16
-4.44089e-16
1.11022e-16
-8.88178e-16
-1.11022e-16
-2.22045e-16
3.33067e-16
-8.88178e-16
2.22045e-16
-7.77156e-16
4.44089e-16
-6.66134e-16
4.44089e-16
-4.44089e-16
6.66134e-16
-1.11022e-16
3.33067e-16
-3.33067e-16
4.44089e-16
0
3.33067e-16
-8.88178e-16
0
-4.44089e-16
-1.11022e-16
-2.22045e-16
0
3.33067e-16
3.33067e-16
-2.22045e-16
5.55112e-16
2.22045e-16
4.44089e-16
0
6.66134e-16
-3.33067e-16
3.33067e-16
1.11022e-16
2.22045e-16
3.33067e-16
4.44089e-16
3.33067e-16
0
-3.33067e-16
1.11022e-16
0
1.11022e-16
0
3.33067e-16
-3.33067e-16
3.33067e-16
1.11022e-16
2.22045e-16
1.11022e-16
2.22045e-16
0
1.11022e-16
-5.55112e-16
0
0
3.33067e-16
9.99201e-16
-2.22045e-16
4.79516e-12
1.11022e-16
6.94356e-09
3.05311e-14
1.25626e-06
7.49789e-12
4.21686e-05
2.83127e-10
0.000412206
3.15067e-09
0.00181404
1.54025e-08
0.00496757
4.53396e-08
0.0102683
9.8317e-08
0.0177962
1.75701e-07
0.0274058
2.75815e-07
0.0388115
3.95221e-07
0.0516659
5.29733e-07
0.0656165
6.75199e-07
0.0803408
8.27953e-07
0.0955622
9.84963e-07
0.111054
1.14381e-06
0.126634
1.30263e-06
0.142164
1.46012e-06
0.157535
1.61573e-06
0.172668
1.76962e-06
0.187501
1.9169e-06
0.20199
2.06414e-06
0.216099
2.20747e-06
0.229804
2.34438e-06
0.24308
2.47998e-06
0.255902
2.59712e-06
0.268241
2.7226e-06
0.280057
2.86141e-06
0.291293
2.99374e-06
0.301869
3.12516e-06
0.311673
3.27003e-06
0.320562
3.43411e-06
0.328366
3.6217e-06
0.334914
3.8349e-06
0.340078
4.06965e-06
0.34382
4.3129e-06
0.346237
4.56135e-06
0.347564
4.86343e-06
0.348121
5.17757e-06
0.348252
6.05118e-06
0.348186
4.14457e-06
0.347699
4.9199e-06
0.347123
5.20704e-06
0.346665
5.08508e-06
0.346316
4.99799e-06
0.346028
5.00101e-06
0.345769
4.97318e-06
0.34553
4.93679e-06
0.345304
4.91348e-06
0.345089
4.91845e-06
0.344882
4.87854e-06
0.344673
4.89252e-06
0.344452
4.83541e-06
0.344221
4.82327e-06
0.343989
4.85508e-06
0.343763
4.70841e-06
0.343539
4.85393e-06
0.343306
4.73809e-06
0.34306
4.72729e-06
0.342812
4.7005e-06
0.342576
4.75139e-06
0.342352
4.51516e-06
0.342125
4.82634e-06
0.341884
4.51578e-06
0.341633
4.23128e-06
0.341392
4.74566e-06
0.34117
5.14511e-06
0.340954
4.95963e-06
0.340719
4.68793e-06
0.340464
4.34724e-06
0.340213
4.31916e-06
0.339989
4.15852e-06
0.339771
4.41057e-06
0.339505
3.97221e-06
0.339163
2.92038e-06
0.338818
4.97602e-07
0.338689
-6.33287e-07
0.338932
-3.60437e-06
0.340178
-6.79845e-06
0.343904
-1.26362e-05
0.352664
-1.73875e-05
0.370531
-1.94765e-05
0.403259
-2.00383e-05
0.457285
-1.99734e-05
0.535862
-2.04264e-05
0.630846
-1.80375e-05
0.716156
-1.02035e-05
0.768543
5.42917e-07
0.787477
2.33008e-06
0.788656
-1.61585e-06
0.78735
-2.57297e-06
0.78573
-4.66368e-06
0.783392
-6.58867e-06
0.780886
-7.73509e-06
0.77888
-7.83056e-06
0.777346
-7.58278e-06
0.776095
-7.18315e-06
0.775125
-6.80846e-06
0.774282
-6.57449e-06
0.773379
-6.43871e-06
0.772295
-6.3331e-06
0.771007
-6.24629e-06
0.769572
-6.18856e-06
0.768037
-6.18284e-06
0.766218
-6.26415e-06
0.763363
-6.38972e-06
0.757165
-6.45649e-06
0.740802
-6.42961e-06
0.695079
-6.28128e-06
0.573417
-5.7811e-06
0.321848
-4.3802e-06
0.0696104
-1.83011e-06
0.002963
-2.81882e-07
1.56999e-05
-1.0307e-08
7.25675e-09
-4.74341e-11
4.56302e-13
-1.63758e-14
2.22045e-16
-2.22045e-16
-3.88578e-16
-3.33067e-16
-7.21645e-16
-5.55112e-16
-2.22045e-16
-4.44089e-16
-2.22045e-16
-6.10623e-16
-6.10623e-16
-3.88578e-16
-4.44089e-16
-5.55112e-17
1.66533e-16
-5.55112e-17
6.10623e-16
-3.88578e-16
3.33067e-16
-4.44089e-16
-2.22045e-16
-4.996e-16
4.44089e-16
-2.77556e-16
1.11022e-16
-6.10623e-16
0
-6.10623e-16
-4.996e-16
-3.33067e-16
5.55112e-17
2.22045e-16
-1.66533e-16
0
-1.11022e-16
0
-1.11022e-16
-5.55112e-16
2.22045e-16
-6.66134e-16
2.22045e-16
-5.55112e-16
0
-7.77156e-16
2.22045e-16
-7.77156e-16
3.33067e-16
-6.66134e-16
3.33067e-16
-3.33067e-16
3.33067e-16
-1.11022e-16
3.33067e-16
-1.11022e-16
4.44089e-16
-3.33067e-16
1.11022e-16
-5.55112e-16
2.22045e-16
-3.33067e-16
5.55112e-16
-2.22045e-16
8.88178e-16
-2.22045e-16
7.77156e-16
0
7.77156e-16
3.33067e-16
4.44089e-16
-2.22045e-16
1.11022e-16
-3.33067e-16
2.22045e-16
-1.11022e-16
2.22045e-16
4.44089e-16
5.55112e-16
2.22045e-16
3.33067e-16
0
2.22045e-16
3.33067e-16
1.11022e-16
1.11022e-16
1.11022e-16
-2.22045e-16
-1.11022e-16
-1.11022e-16
0
0
6.66134e-16
1.11022e-16
5.55112e-16
0
4.44089e-16
0
2.22045e-16
5.55112e-16
0
4.79605e-12
4.44089e-16
6.94389e-09
1.70974e-14
1.25631e-06
3.99658e-12
4.217e-05
1.71469e-10
0.000412217
2.11152e-09
0.00181408
1.11267e-08
0.00496769
3.47323e-08
0.0102685
7.8835e-08
0.0177967
1.45965e-07
0.0274066
2.35574e-07
0.0388128
3.45078e-07
0.0516677
4.70848e-07
0.0656191
6.08995e-07
0.0803443
7.55904e-07
0.0955667
9.08497e-07
0.111059
1.06427e-06
0.126641
1.22127e-06
0.142173
1.37802e-06
0.157546
1.5337e-06
0.17268
1.68896e-06
0.187515
1.83797e-06
0.202006
1.98326e-06
0.216118
2.12639e-06
0.229825
2.26303e-06
0.243103
2.40977e-06
0.255928
2.55492e-06
0.268269
2.66191e-06
0.280088
2.80264e-06
0.291327
2.94975e-06
0.301906
3.09284e-06
0.311714
3.24601e-06
0.320606
3.41617e-06
0.328414
3.60599e-06
0.334966
3.81909e-06
0.340134
4.04935e-06
0.34388
4.29303e-06
0.346302
4.54844e-06
0.347633
4.83173e-06
0.348196
5.04478e-06
0.348334
5.48135e-06
0.34827
4.97425e-06
0.347789
4.78397e-06
0.347218
4.94865e-06
0.346765
5.1398e-06
0.346421
5.02384e-06
0.346137
4.99829e-06
0.345884
4.96232e-06
0.34565
4.94076e-06
0.345428
4.89401e-06
0.345219
4.91709e-06
0.345016
4.82426e-06
0.344812
4.88024e-06
0.344597
4.7814e-06
0.34437
4.74935e-06
0.344143
4.87122e-06
0.343922
4.53272e-06
0.343702
4.8997e-06
0.343474
4.5432e-06
0.343233
4.67732e-06
0.34299
4.55534e-06
0.342759
4.72174e-06
0.34254
4.13513e-06
0.342318
4.95605e-06
0.342081
4.2996e-06
0.341835
3.85941e-06
0.341599
4.73439e-06
0.341383
4.75749e-06
0.341171
4.37427e-06
0.340942
4.17753e-06
0.340691
3.88451e-06
0.340445
3.90629e-06
0.340226
3.52229e-06
0.340013
3.81203e-06
0.339753
3.04222e-06
0.339414
2.15898e-06
0.33907
-1.65494e-08
0.338941
-1.11237e-06
0.339178
-2.93846e-06
0.340416
-5.41647e-06
0.344124
-7.85555e-06
0.352859
-9.71166e-06
0.370697
-1.35452e-05
0.403394
-1.36616e-05
0.457389
-1.5214e-05
0.53594
-1.93833e-05
0.630912
-2.28804e-05
0.716235
-2.36507e-05
0.768652
-1.83597e-05
0.787613
-1.17914e-05
0.788796
-6.12171e-06
0.787491
-6.02867e-06
0.785868
-6.75266e-06
0.783525
-7.29585e-06
0.781011
-7.36925e-06
0.778996
-7.30218e-06
0.777455
-7.05804e-06
0.776196
-6.65546e-06
0.775218
-6.31969e-06
0.774368
-6.1165e-06
0.773458
-5.97551e-06
0.772367
-5.85554e-06
0.771072
-5.76172e-06
0.769631
-5.71154e-06
0.768088
-5.72501e-06
0.766263
-5.80032e-06
0.7634
-5.87956e-06
0.757195
-5.91487e-06
0.740825
-5.88653e-06
0.695095
-5.72942e-06
0.573427
-5.07425e-06
0.321853
-3.28857e-06
0.0696119
-1.25911e-06
0.0029631
-1.66939e-07
1.57006e-05
-4.91974e-09
7.25714e-09
-2.0388e-11
4.56524e-13
-8.82627e-15
-5.55112e-17
-5.55112e-17
-7.77156e-16
-5.55112e-16
-3.33067e-16
-5.55112e-17
-3.33067e-16
-4.996e-16
-1.11022e-16
-3.88578e-16
-6.10623e-16
-4.44089e-16
-3.88578e-16
-3.33067e-16
0
1.66533e-16
7.21645e-16
-2.22045e-16
2.77556e-16
-7.77156e-16
1.66533e-16
-6.10623e-16
-1.66533e-16
-7.21645e-16
-5.55112e-17
-1.66533e-16
2.77556e-16
-3.88578e-16
-1.11022e-16
-5.55112e-16
-2.77556e-16
-2.22045e-16
-5.55112e-17
0
-1.11022e-16
1.11022e-16
-1.11022e-16
-3.33067e-16
0
-6.66134e-16
0
-3.33067e-16
-2.22045e-16
-5.55112e-16
-2.22045e-16
-7.77156e-16
-4.44089e-16
-6.66134e-16
-3.33067e-16
-2.22045e-16
0
-3.33067e-16
2.22045e-16
-5.55112e-16
2.22045e-16
-1.11022e-16
1.11022e-16
-2.22045e-16
2.22045e-16
0
4.44089e-16
-1.11022e-16
5.55112e-16
-2.22045e-16
4.44089e-16
-2.22045e-16
6.66134e-16
-2.22045e-16
2.22045e-16
-1.11022e-16
3.33067e-16
-2.22045e-16
5.55112e-16
-1.11022e-16
2.22045e-16
4.44089e-16
3.33067e-16
0
-1.11022e-16
-2.22045e-16
-1.11022e-16
2.22045e-16
1.11022e-16
0
2.22045e-16
0
0
5.55112e-16
3.33067e-16
1.11022e-16
3.33067e-16
-1.11022e-16
1.11022e-16
-3.33067e-16
4.44089e-16
0
4.44089e-16
2.22045e-16
0
4.79616e-12
-1.11022e-16
6.94425e-09
1.18794e-14
1.25636e-06
3.03191e-12
4.2171e-05
1.34115e-10
0.000412223
1.67087e-09
0.0018141
8.91578e-09
0.00496772
2.83259e-08
0.0102686
6.56488e-08
0.0177968
1.24112e-07
0.0274066
2.04077e-07
0.0388129
3.03728e-07
0.0516678
4.20006e-07
0.0656192
5.49399e-07
0.0803444
6.8849e-07
0.0955668
8.3426e-07
0.111059
9.84207e-07
0.126641
1.13635e-06
0.142173
1.28918e-06
0.157546
1.44164e-06
0.17268
1.59311e-06
0.187515
1.74228e-06
0.202006
1.88706e-06
0.216118
2.03041e-06
0.229825
2.17285e-06
0.243103
2.31661e-06
0.255928
2.46052e-06
0.268269
2.5801e-06
0.280088
2.70756e-06
0.291327
2.84886e-06
0.301907
2.99531e-06
0.311714
3.14685e-06
0.320606
3.31129e-06
0.328414
3.495e-06
0.334966
3.70271e-06
0.340134
3.93482e-06
0.343881
4.18552e-06
0.346302
4.44154e-06
0.347633
4.7071e-06
0.348196
4.90447e-06
0.348333
5.11532e-06
0.34827
5.18815e-06
0.347789
4.86361e-06
0.347218
4.8449e-06
0.346765
5.01521e-06
0.346421
5.01898e-06
0.346137
4.96186e-06
0.345884
4.91227e-06
0.34565
4.91072e-06
0.345428
4.8441e-06
0.345219
4.87309e-06
0.345016
4.74084e-06
0.344812
4.82358e-06
0.344597
4.69981e-06
0.34437
4.65242e-06
0.344143
4.83216e-06
0.343922
4.36995e-06
0.343702
4.885e-06
0.343474
4.33974e-06
0.343233
4.61162e-06
0.34299
4.37844e-06
0.342759
4.66192e-06
0.34254
3.7844e-06
0.342318
4.9978e-06
0.342081
4.06515e-06
0.341835
3.53423e-06
0.341599
4.64503e-06
0.341383
4.29553e-06
0.341171
3.7788e-06
0.340942
3.67926e-06
0.340692
3.50457e-06
0.340445
3.50788e-06
0.340226
2.68936e-06
0.340013
3.03219e-06
0.339753
2.23586e-06
0.339414
1.68328e-06
0.33907
-2.88995e-07
0.338941
-1.56551e-06
0.339178
-2.60501e-06
0.340415
-4.16021e-06
0.344124
-6.25775e-06
0.352859
-8.77624e-06
0.370693
-1.11144e-05
0.403386
-1.21621e-05
0.457377
-1.41206e-05
0.535925
-1.87345e-05
0.630903
-2.48184e-05
0.716234
-2.74656e-05
0.768654
-2.3085e-05
0.787614
-1.53816e-05
0.788797
-9.09948e-06
0.787491
-8.79503e-06
0.785869
-8.36444e-06
0.783525
-7.89506e-06
0.781011
-7.33157e-06
0.778996
-7.00518e-06
0.777454
-6.71274e-06
0.776195
-6.34904e-06
0.775218
-6.05454e-06
0.774368
-5.85931e-06
0.773458
-5.71213e-06
0.772367
-5.59165e-06
0.771072
-5.50616e-06
0.769631
-5.47196e-06
0.768088
-5.49076e-06
0.766262
-5.53638e-06
0.7634
-5.57383e-06
0.757194
-5.57538e-06
0.740824
-5.49351e-06
0.695095
-5.20793e-06
0.573427
-4.59364e-06
0.321855
-2.96568e-06
0.0696129
-1.10785e-06
0.00296318
-1.44013e-07
1.57013e-05
-4.07143e-09
7.25762e-09
-1.55157e-11
4.56135e-13
-5.60663e-15
0
-3.88578e-16
-4.44089e-16
-3.88578e-16
-6.66134e-16
-3.88578e-16
-4.996e-16
0
-2.77556e-16
-1.11022e-16
-2.22045e-16
-1.11022e-16
5.55112e-17
-4.996e-16
-1.11022e-16
-3.33067e-16
1.11022e-16
-4.44089e-16
3.88578e-16
-3.88578e-16
1.11022e-16
-7.21645e-16
2.77556e-16
-4.996e-16
-1.11022e-16
-6.10623e-16
2.77556e-16
-4.44089e-16
1.66533e-16
-5.55112e-16
-5.55112e-17
-4.44089e-16
-3.88578e-16
3.33067e-16
0
1.11022e-16
-3.33067e-16
-3.33067e-16
-4.44089e-16
-6.66134e-16
-4.44089e-16
-6.66134e-16
-3.33067e-16
-5.55112e-16
1.11022e-16
-7.77156e-16
-4.44089e-16
-1.11022e-16
2.22045e-16
-3.33067e-16
-3.33067e-16
-2.22045e-16
0
-5.55112e-16
-2.22045e-16
3.33067e-16
0
-1.11022e-16
1.11022e-16
1.11022e-16
1.11022e-16
-4.44089e-16
1.11022e-16
0
3.33067e-16
-4.44089e-16
1.11022e-16
0
3.33067e-16
-2.22045e-16
-1.11022e-16
-2.22045e-16
0
0
1.11022e-16
0
0
0
0
-1.11022e-16
-1.11022e-16
2.22045e-16
2.22045e-16
0
3.33067e-16
1.11022e-16
-1.11022e-16
1.11022e-16
0
0
0
2.22045e-16
1.11022e-16
-2.22045e-16
0
-3.33067e-16
-1.11022e-16
2.22045e-16
1.11022e-16
4.79716e-12
-1.11022e-16
6.94456e-09
9.88098e-15
1.2564e-06
2.51632e-12
4.21718e-05
1.12999e-10
0.000412228
1.4204e-09
0.00181412
7.6263e-09
0.00496776
2.43826e-08
0.0102686
5.69468e-08
0.0177968
1.08623e-07
0.0274067
1.80285e-07
0.038813
2.70774e-07
0.0516679
3.77654e-07
0.0656193
4.97894e-07
0.0803445
6.28376e-07
0.0955669
7.6622e-07
0.111059
9.08954e-07
0.126642
1.05457e-06
0.142173
1.20152e-06
0.157546
1.34864e-06
0.17268
1.495e-06
0.187515
1.63991e-06
0.202006
1.78173e-06
0.216118
1.92147e-06
0.229825
2.06074e-06
0.243104
2.20161e-06
0.255928
2.34047e-06
0.268269
2.47174e-06
0.280088
2.59722e-06
0.291328
2.73312e-06
0.301907
2.88037e-06
0.311714
3.03566e-06
0.320606
3.20239e-06
0.328414
3.38624e-06
0.334966
3.58847e-06
0.340134
3.81142e-06
0.343881
4.0527e-06
0.346302
4.29761e-06
0.347633
4.54321e-06
0.348196
4.71005e-06
0.348333
4.90659e-06
0.34827
5.05649e-06
0.347789
4.85747e-06
0.347218
4.78668e-06
0.346764
4.83225e-06
0.346421
4.91022e-06
0.346137
4.87691e-06
0.345884
4.82159e-06
0.34565
4.82183e-06
0.345428
4.7446e-06
0.345219
4.77929e-06
0.345016
4.62895e-06
0.344812
4.71756e-06
0.344597
4.58739e-06
0.34437
4.52453e-06
0.344143
4.72579e-06
0.343922
4.21431e-06
0.343702
4.78788e-06
0.343474
4.13153e-06
0.343233
4.51441e-06
0.34299
4.16092e-06
0.342759
4.56148e-06
0.34254
3.46879e-06
0.342318
4.87592e-06
0.342081
3.82765e-06
0.341835
3.26962e-06
0.341599
4.47376e-06
0.341383
3.90374e-06
0.341171
3.19264e-06
0.340942
3.15605e-06
0.340691
3.08834e-06
0.340445
3.11188e-06
0.340226
2.10594e-06
0.340012
2.31709e-06
0.339752
1.38514e-06
0.339413
9.45203e-07
0.33907
-7.85038e-07
0.33894
-1.95043e-06
0.339178
-2.65539e-06
0.340415
-3.91862e-06
0.344123
-5.91516e-06
0.352856
-8.22691e-06
0.370687
-1.01288e-05
0.403376
-1.17755e-05
0.457363
-1.416e-05
0.535908
-1.83797e-05
0.630888
-2.3062e-05
0.716227
-2.44935e-05
0.768655
-2.15836e-05
0.787617
-1.44919e-05
0.7888
-1.02948e-05
0.787492
-9.90182e-06
0.785869
-9.03364e-06
0.783525
-8.2577e-06
0.781011
-7.48508e-06
0.778996
-6.9508e-06
0.777454
-6.58059e-06
0.776195
-6.22965e-06
0.775218
-5.94479e-06
0.774368
-5.74347e-06
0.773457
-5.59604e-06
0.772367
-5.48221e-06
0.771071
-5.40404e-06
0.76963
-5.36945e-06
0.768087
-5.37071e-06
0.766262
-5.37573e-06
0.763399
-5.36137e-06
0.757194
-5.31032e-06
0.740824
-5.20586e-06
0.695095
-4.9978e-06
0.573428
-4.30462e-06
0.321857
-2.90204e-06
0.069614
-1.08647e-06
0.00296326
-1.41103e-07
1.5702e-05
-3.98024e-09
7.25806e-09
-1.50339e-11
4.56024e-13
-5.21805e-15
-5.55112e-17
-2.77556e-16
-4.996e-16
-4.44089e-16
-3.33067e-16
-2.77556e-16
-4.996e-16
-2.22045e-16
-5.55112e-17
0
-4.44089e-16
-3.88578e-16
-2.22045e-16
-3.88578e-16
1.66533e-16
1.11022e-16
3.33067e-16
-1.66533e-16
0
-1.66533e-16
2.22045e-16
-2.77556e-16
5.55112e-17
-3.33067e-16
2.77556e-16
-3.33067e-16
1.66533e-16
-2.22045e-16
1.66533e-16
-2.22045e-16
1.66533e-16
-2.22045e-16
-2.22045e-16
-1.11022e-16
-6.66134e-16
4.44089e-16
0
-2.22045e-16
-3.33067e-16
-2.22045e-16
-2.22045e-16
-7.77156e-16
-5.55112e-16
-6.66134e-16
-1.11022e-16
-5.55112e-16
-4.44089e-16
-3.33067e-16
-2.22045e-16
0
-1.11022e-16
-3.33067e-16
-1.11022e-16
-3.33067e-16
-2.22045e-16
4.44089e-16
3.33067e-16
-1.11022e-16
-1.11022e-16
0
0
-2.22045e-16
0
-1.11022e-16
2.22045e-16
-2.22045e-16
2.22045e-16
-3.33067e-16
0
-3.33067e-16
3.33067e-16
-3.33067e-16
2.22045e-16
-2.22045e-16
3.33067e-16
0
0
1.11022e-16
-1.11022e-16
4.44089e-16
-1.11022e-16
0
-3.33067e-16
-1.11022e-16
-4.44089e-16
0
-4.44089e-16
2.22045e-16
-2.22045e-16
1.11022e-16
-5.55112e-16
-1.11022e-16
-4.44089e-16
-1.11022e-16
-2.22045e-16
-1.11022e-16
-2.22045e-16
4.44089e-16
-5.55112e-16
4.79694e-12
0
6.94482e-09
7.88258e-15
1.25643e-06
2.06368e-12
4.21726e-05
9.35769e-11
0.000412233
1.18903e-09
0.00181413
6.4578e-09
0.00496779
2.08828e-08
0.0102687
4.93138e-08
0.0177969
9.50763e-08
0.0274068
1.59416e-07
0.0388131
2.41681e-07
0.051668
3.39901e-07
0.0656194
4.51421e-07
0.0803446
5.73404e-07
0.095567
7.03157e-07
0.11106
8.38319e-07
0.126642
9.7693e-07
0.142173
1.11742e-06
0.157546
1.25858e-06
0.17268
1.39942e-06
0.187515
1.53915e-06
0.202006
1.67702e-06
0.216118
1.81293e-06
0.229825
1.94817e-06
0.243104
2.0838e-06
0.255928
2.21881e-06
0.26827
2.35199e-06
0.280088
2.47924e-06
0.291328
2.60991e-06
0.301907
2.75177e-06
0.311714
2.90571e-06
0.320606
3.07283e-06
0.328414
3.25668e-06
0.334966
3.45948e-06
0.340134
3.67913e-06
0.343881
3.91303e-06
0.346302
4.1488e-06
0.347633
4.37773e-06
0.348196
4.53956e-06
0.348333
4.72667e-06
0.34827
4.82269e-06
0.347789
4.77003e-06
0.347218
4.71312e-06
0.346764
4.69498e-06
0.346421
4.74495e-06
0.346137
4.75228e-06
0.345884
4.70539e-06
0.345649
4.6988e-06
0.345428
4.61245e-06
0.345219
4.65415e-06
0.345016
4.50001e-06
0.344812
4.5803e-06
0.344597
4.45639e-06
0.34437
4.37358e-06
0.344143
4.57453e-06
0.343922
4.06159e-06
0.343702
4.63529e-06
0.343474
3.91483e-06
0.343233
4.39442e-06
0.34299
3.90715e-06
0.342759
4.43159e-06
0.34254
3.17681e-06
0.342318
4.69472e-06
0.342081
3.56788e-06
0.341835
3.00045e-06
0.341599
4.24958e-06
0.341382
3.53732e-06
0.341171
2.7314e-06
0.340942
2.66023e-06
0.340691
2.64918e-06
0.340445
2.68625e-06
0.340226
1.63714e-06
0.340012
1.76675e-06
0.339751
7.45228e-07
0.339412
2.51259e-07
0.339069
-1.32996e-06
0.338939
-2.27521e-06
0.339177
-2.93316e-06
0.340414
-3.97626e-06
0.344122
-5.62819e-06
0.352854
-7.35823e-06
0.370684
-9.16309e-06
0.403371
-1.0976e-05
0.457354
-1.31326e-05
0.535897
-1.63517e-05
0.630877
-1.95564e-05
0.716221
-2.03924e-05
0.768654
-1.86739e-05
0.787619
-1.32791e-05
0.788801
-1.05172e-05
0.787493
-1.01419e-05
0.785869
-9.24637e-06
0.783525
-8.44736e-06
0.781011
-7.62797e-06
0.778996
-6.97238e-06
0.777454
-6.56199e-06
0.776195
-6.20336e-06
0.775218
-5.91337e-06
0.774368
-5.70689e-06
0.773457
-5.54897e-06
0.772366
-5.42714e-06
0.771071
-5.34589e-06
0.76963
-5.29365e-06
0.768087
-5.26019e-06
0.766261
-5.23307e-06
0.763399
-5.20317e-06
0.757194
-5.16297e-06
0.740824
-5.06082e-06
0.695095
-4.80599e-06
0.573429
-4.16245e-06
0.321859
-2.81614e-06
0.069615
-1.05216e-06
0.00296334
-1.36246e-07
1.57026e-05
-3.84252e-09
7.25848e-09
-1.45629e-11
4.56191e-13
-5.21805e-15
-1.11022e-16
-2.22045e-16
-1.11022e-16
-3.88578e-16
-1.66533e-16
-3.33067e-16
-2.22045e-16
-4.996e-16
-4.44089e-16
-6.10623e-16
-3.33067e-16
-1.66533e-16
5.55112e-17
-5.55112e-17
5.55112e-17
-2.77556e-16
0
-3.88578e-16
5.55112e-17
-2.22045e-16
2.22045e-16
-2.77556e-16
-1.11022e-16
-2.22045e-16
5.55112e-17
-3.33067e-16
2.22045e-16
-1.66533e-16
3.88578e-16
-2.22045e-16
2.22045e-16
-2.77556e-16
-2.77556e-16
2.22045e-16
-2.22045e-16
1.11022e-16
-4.44089e-16
-3.33067e-16
-3.33067e-16
-2.22045e-16
-5.55112e-16
-6.66134e-16
-2.22045e-16
-3.33067e-16
-1.11022e-16
-6.66134e-16
-2.22045e-16
-1.11022e-16
-2.22045e-16
0
-1.11022e-16
-1.11022e-16
-6.66134e-16
0
-4.44089e-16
1.11022e-16
-2.22045e-16
0
-2.22045e-16
0
-1.11022e-16
0
1.11022e-16
-2.22045e-16
0
-2.22045e-16
1.11022e-16
-3.33067e-16
2.22045e-16
-3.33067e-16
-1.11022e-16
-3.33067e-16
-1.11022e-16
-5.55112e-16
0
1.11022e-16
0
-1.11022e-16
0
1.11022e-16
-1.11022e-16
0
-5.55112e-16
-5.55112e-16
-5.55112e-16
1.11022e-16
-2.22045e-16
-1.11022e-16
-4.44089e-16
5.55112e-16
-1.11022e-16
0
-6.66134e-16
-1.11022e-16
-4.44089e-16
-5.55112e-16
-5.55112e-16
6.66134e-16
-5.55112e-16
4.79727e-12
-5.55112e-16
6.94503e-09
6.43929e-15
1.25646e-06
1.64491e-12
4.21732e-05
7.53408e-11
0.000412238
9.69904e-10
0.00181415
5.34873e-09
0.00496782
1.75687e-08
0.0102687
4.2101e-08
0.017797
8.22591e-08
0.0274069
1.39588e-07
0.0388132
2.13891e-07
0.0516682
3.0366e-07
0.0656195
4.06625e-07
0.0803447
5.20237e-07
0.0955671
6.42003e-07
0.11106
7.6967e-07
0.126642
9.01319e-07
0.142173
1.03538e-06
0.157546
1.17058e-06
0.17268
1.30593e-06
0.187516
1.44059e-06
0.202006
1.57405e-06
0.216118
1.706e-06
0.229825
1.83711e-06
0.243104
1.96825e-06
0.255928
2.0995e-06
0.26827
2.2303e-06
0.280088
2.3588e-06
0.291328
2.48762e-06
0.301907
2.62452e-06
0.311714
2.77436e-06
0.320606
2.93915e-06
0.328414
3.12123e-06
0.334967
3.32229e-06
0.340134
3.54009e-06
0.343881
3.76857e-06
0.346302
3.9961e-06
0.347633
4.20995e-06
0.348196
4.37461e-06
0.348333
4.5509e-06
0.34827
4.64869e-06
0.347788
4.65329e-06
0.347218
4.62367e-06
0.346764
4.58512e-06
0.346421
4.5941e-06
0.346137
4.60688e-06
0.345884
4.57683e-06
0.345649
4.57369e-06
0.345428
4.4769e-06
0.345219
4.51769e-06
0.345016
4.36675e-06
0.344812
4.42746e-06
0.344596
4.32053e-06
0.34437
4.21606e-06
0.344143
4.40347e-06
0.343922
3.92142e-06
0.343702
4.45194e-06
0.343474
3.70664e-06
0.343233
4.26031e-06
0.34299
3.64546e-06
0.342759
4.28861e-06
0.34254
2.9072e-06
0.342318
4.48909e-06
0.342081
3.30309e-06
0.341834
2.72396e-06
0.341599
3.99507e-06
0.341382
3.2097e-06
0.341171
2.36533e-06
0.340941
2.25158e-06
0.340691
2.25831e-06
0.340444
2.25712e-06
0.340225
1.21074e-06
0.340011
1.30349e-06
0.33975
3.01568e-07
0.339412
-2.5765e-07
0.339068
-1.74378e-06
0.338938
-2.52842e-06
0.339176
-3.15953e-06
0.340413
-3.98271e-06
0.34412
-5.35333e-06
0.352853
-6.86444e-06
0.370683
-8.48493e-06
0.40337
-1.00491e-05
0.457352
-1.15554e-05
0.535894
-1.35407e-05
0.630874
-1.56155e-05
0.716219
-1.66797e-05
0.768655
-1.57848e-05
0.78762
-1.22533e-05
0.788802
-1.02958e-05
0.787494
-9.94427e-06
0.78587
-9.12454e-06
0.783525
-8.40803e-06
0.781011
-7.64566e-06
0.778996
-6.9751e-06
0.777454
-6.54758e-06
0.776195
-6.19463e-06
0.775218
-5.90413e-06
0.774368
-5.68582e-06
0.773457
-5.51586e-06
0.772366
-5.38382e-06
0.771071
-5.28946e-06
0.76963
-5.21868e-06
0.768087
-5.17156e-06
0.766261
-5.13761e-06
0.763399
-5.09356e-06
0.757194
-5.03402e-06
0.740824
-4.91391e-06
0.695096
-4.63557e-06
0.573431
-3.99932e-06
0.321861
-2.69106e-06
0.069616
-1.00244e-06
0.00296342
-1.29716e-07
1.57033e-05
-3.66106e-09
7.25888e-09
-1.38966e-11
4.55691e-13
-5.16254e-15
-1.11022e-16
-3.33067e-16
-2.77556e-16
-5.55112e-17
-1.66533e-16
-3.88578e-16
-5.55112e-16
-7.21645e-16
-1.11022e-16
-2.77556e-16
-1.11022e-16
-2.77556e-16
-2.22045e-16
-2.22045e-16
1.66533e-16
-4.44089e-16
2.77556e-16
-4.996e-16
0
-7.21645e-16
3.33067e-16
-4.996e-16
0
-5.55112e-16
2.22045e-16
-1.66533e-16
4.44089e-16
-1.66533e-16
2.77556e-16
-2.22045e-16
1.66533e-16
-4.44089e-16
-7.21645e-16
5.55112e-16
-4.44089e-16
0
-2.22045e-16
-5.55112e-16
0
1.11022e-16
1.11022e-16
-2.22045e-16
-2.22045e-16
-7.77156e-16
-2.22045e-16
-5.55112e-16
-5.55112e-16
1.11022e-16
-4.44089e-16
-3.33067e-16
-5.55112e-16
2.22045e-16
-2.22045e-16
3.33067e-16
-3.33067e-16
1.11022e-16
-4.44089e-16
-4.44089e-16
-4.44089e-16
1.11022e-16
-3.33067e-16
-2.22045e-16
-2.22045e-16
0
0
-3.33067e-16
0
-3.33067e-16
-2.22045e-16
-2.22045e-16
0
1.11022e-16
0
-3.33067e-16
-1.11022e-16
0
-2.22045e-16
0
-4.44089e-16
-1.11022e-16
-3.33067e-16
3.33067e-16
0
-1.11022e-16
3.33067e-16
0
3.33067e-16
3.33067e-16
-1.11022e-16
0
-3.33067e-16
2.22045e-16
-1.11022e-16
-1.11022e-16
-3.33067e-16
0
-5.55112e-16
2.22045e-16
-5.55112e-16
4.79772e-12
-4.44089e-16
6.9452e-09
5.21805e-15
1.25648e-06
1.27054e-12
4.21738e-05
5.89343e-11
0.000412241
7.71279e-10
0.00181416
4.33415e-09
0.00496784
1.4509e-08
0.0102688
3.53804e-08
0.017797
7.02011e-08
0.027407
1.20753e-07
0.0388132
1.8726e-07
0.0516683
2.68681e-07
0.0656196
3.6315e-07
0.0803448
4.68423e-07
0.0955673
5.82205e-07
0.11106
7.02364e-07
0.126642
8.27033e-07
0.142173
9.54645e-07
0.157546
1.08392e-06
0.17268
1.21382e-06
0.187516
1.34352e-06
0.202006
1.47248e-06
0.216118
1.60041e-06
0.229825
1.72755e-06
0.243104
1.85461e-06
0.255928
1.9821e-06
0.26827
2.10992e-06
0.280089
2.23767e-06
0.291328
2.36588e-06
0.301907
2.49951e-06
0.311714
2.64472e-06
0.320607
2.80553e-06
0.328414
2.98435e-06
0.334967
3.18215e-06
0.340134
3.3966e-06
0.343881
3.62029e-06
0.346303
3.84121e-06
0.347634
4.04668e-06
0.348196
4.20989e-06
0.348333
4.37549e-06
0.34827
4.49456e-06
0.347788
4.51783e-06
0.347218
4.50397e-06
0.346764
4.47272e-06
0.346421
4.46033e-06
0.346137
4.46893e-06
0.345884
4.44304e-06
0.345649
4.44763e-06
0.345428
4.34794e-06
0.345218
4.38318e-06
0.345016
4.23846e-06
0.344812
4.27201e-06
0.344596
4.18851e-06
0.34437
4.06071e-06
0.344143
4.22767e-06
0.343921
3.79654e-06
0.343702
4.26007e-06
0.343474
3.52382e-06
0.343233
4.11768e-06
0.34299
3.39569e-06
0.342759
4.14034e-06
0.34254
2.66017e-06
0.342318
4.28258e-06
0.342081
3.05312e-06
0.341834
2.45253e-06
0.341598
3.71907e-06
0.341382
2.89935e-06
0.34117
2.04754e-06
0.340941
1.91733e-06
0.34069
1.95146e-06
0.340444
1.89476e-06
0.340225
8.50051e-07
0.340011
8.90755e-07
0.33975
-4.22364e-08
0.339411
-6.03356e-07
0.339067
-1.9836e-06
0.338937
-2.69812e-06
0.339174
-3.28651e-06
0.340411
-3.97305e-06
0.344119
-5.074e-06
0.352852
-6.36991e-06
0.370682
-7.73385e-06
0.403368
-9.05923e-06
0.457351
-1.01533e-05
0.535893
-1.13216e-05
0.630874
-1.26708e-05
0.716219
-1.36665e-05
0.768657
-1.31556e-05
0.787622
-1.10449e-05
0.788804
-9.77473e-06
0.787495
-9.45988e-06
0.785871
-8.74904e-06
0.783526
-8.14954e-06
0.781011
-7.49194e-06
0.778997
-6.87608e-06
0.777455
-6.46986e-06
0.776195
-6.13191e-06
0.775218
-5.85315e-06
0.774368
-5.6408e-06
0.773457
-5.47263e-06
0.772366
-5.33608e-06
0.771071
-5.23127e-06
0.76963
-5.15171e-06
0.768087
-5.09232e-06
0.766261
-5.04031e-06
0.763399
-4.97693e-06
0.757194
-4.88922e-06
0.740824
-4.74023e-06
0.695097
-4.44576e-06
0.573432
-3.81435e-06
0.321863
-2.55659e-06
0.069617
-9.50102e-07
0.00296349
-1.22772e-07
1.57039e-05
-3.46269e-09
7.25926e-09
-1.314e-11
4.56357e-13
-4.82947e-15
-2.22045e-16
-4.44089e-16
-5.55112e-16
-3.33067e-16
-4.44089e-16
-6.66134e-16
5.55112e-17
-4.996e-16
-5.55112e-17
-6.66134e-16
-2.22045e-16
-4.44089e-16
-3.88578e-16
-5.55112e-16
-1.66533e-16
-4.44089e-16
1.11022e-16
-4.996e-16
2.22045e-16
-5.55112e-16
3.33067e-16
-4.996e-16
4.996e-16
-7.21645e-16
1.11022e-16
-7.77156e-16
4.996e-16
-4.996e-16
-5.55112e-17
-3.88578e-16
-5.55112e-17
-2.77556e-16
-3.88578e-16
3.33067e-16
-1.11022e-16
1.11022e-16
-1.11022e-16
-5.55112e-16
-3.33067e-16
-3.33067e-16
0
-4.44089e-16
-2.22045e-16
-8.88178e-16
-4.44089e-16
-6.66134e-16
-3.33067e-16
-4.44089e-16
-2.22045e-16
0
-5.55112e-16
0
-4.44089e-16
0
-4.44089e-16
2.22045e-16
-1.11022e-16
0
1.11022e-16
1.11022e-16
4.44089e-16
-1.11022e-16
2.22045e-16
-2.22045e-16
-1.11022e-16
-2.22045e-16
2.22045e-16
-1.11022e-16
2.22045e-16
-1.11022e-16
0
-1.11022e-16
-1.11022e-16
-2.22045e-16
0
0
1.11022e-16
0
4.44089e-16
1.11022e-16
2.22045e-16
2.22045e-16
1.11022e-16
0
-2.22045e-16
-6.66134e-16
1.11022e-16
3.33067e-16
2.22045e-16
0
-3.33067e-16
0
0
-4.44089e-16
-2.22045e-16
-3.33067e-16
-3.33067e-16
3.33067e-16
-3.33067e-16
4.79738e-12
-6.66134e-16
6.94532e-09
3.44169e-15
1.2565e-06
9.45799e-13
4.21742e-05
4.46198e-11
0.000412244
5.96608e-10
0.00181417
3.43272e-09
0.00496786
1.1759e-08
0.0102688
2.92682e-08
0.0177971
5.91036e-08
0.027407
1.0321e-07
0.0388133
1.62167e-07
0.0516684
2.35367e-07
0.0656197
3.21357e-07
0.080345
4.18225e-07
0.0955674
5.23911e-07
0.11106
6.36429e-07
0.126642
7.53987e-07
0.142173
8.7504e-07
0.157546
9.98294e-07
0.172681
1.12269e-06
0.187516
1.24739e-06
0.202007
1.37178e-06
0.216118
1.49555e-06
0.229825
1.61876e-06
0.243104
1.74189e-06
0.255928
1.86558e-06
0.26827
1.99023e-06
0.280089
2.116e-06
0.291328
2.24333e-06
0.301907
2.37499e-06
0.311715
2.51636e-06
0.320607
2.67264e-06
0.328414
2.84715e-06
0.334967
3.04091e-06
0.340135
3.25142e-06
0.343881
3.47116e-06
0.346303
3.68753e-06
0.347634
3.88862e-06
0.348196
4.04887e-06
0.348333
4.21294e-06
0.34827
4.34497e-06
0.347788
4.37649e-06
0.347218
4.37806e-06
0.346764
4.35255e-06
0.346421
4.33328e-06
0.346137
4.33481e-06
0.345884
4.30838e-06
0.345649
4.31839e-06
0.345428
4.22038e-06
0.345218
4.25017e-06
0.345016
4.11386e-06
0.344812
4.11704e-06
0.344596
4.05854e-06
0.34437
3.90715e-06
0.344143
4.05019e-06
0.343921
3.67513e-06
0.343702
4.06553e-06
0.343474
3.36364e-06
0.343233
3.96247e-06
0.34299
3.17196e-06
0.342759
3.98438e-06
0.342539
2.43852e-06
0.342318
4.08464e-06
0.342081
2.82827e-06
0.341834
2.20572e-06
0.341598
3.44654e-06
0.341382
2.61498e-06
0.34117
1.75815e-06
0.340941
1.63015e-06
0.34069
1.697e-06
0.340443
1.60605e-06
0.340224
5.85245e-07
0.34001
5.72269e-07
0.339749
-2.96809e-07
0.33941
-8.38807e-07
0.339066
-2.11646e-06
0.338936
-2.77833e-06
0.339173
-3.30968e-06
0.34041
-3.92179e-06
0.344118
-4.8746e-06
0.352851
-5.95027e-06
0.370681
-7.00467e-06
0.403368
-8.027e-06
0.45735
-8.83554e-06
0.535893
-9.55021e-06
0.630875
-1.05436e-05
0.716221
-1.12815e-05
0.768658
-1.09537e-05
0.787624
-9.76567e-06
0.788805
-9.08716e-06
0.787496
-8.8378e-06
0.785872
-8.26425e-06
0.783527
-7.77613e-06
0.781012
-7.22237e-06
0.778997
-6.67992e-06
0.777455
-6.31332e-06
0.776196
-6.00043e-06
0.775218
-5.73738e-06
0.774368
-5.53712e-06
0.773458
-5.38072e-06
0.772367
-5.25299e-06
0.771071
-5.14984e-06
0.76963
-5.06606e-06
0.768087
-4.99368e-06
0.766261
-4.91935e-06
0.763399
-4.83287e-06
0.757194
-4.71907e-06
0.740825
-4.54635e-06
0.695097
-4.24143e-06
0.573433
-3.62487e-06
0.321865
-2.42368e-06
0.0696179
-8.99369e-07
0.00296356
-1.16113e-07
1.57044e-05
-3.27286e-09
7.25963e-09
-1.24128e-11
4.56135e-13
-4.16334e-15
-4.44089e-16
-6.66134e-16
-8.32667e-16
-4.44089e-16
-3.33067e-16
-2.22045e-16
-2.22045e-16
-1.66533e-16
1.11022e-16
-2.77556e-16
-1.66533e-16
-2.77556e-16
-3.88578e-16
-3.88578e-16
-1.66533e-16
-5.55112e-16
0
-6.10623e-16
1.66533e-16
-7.21645e-16
0
-6.10623e-16
4.44089e-16
-3.33067e-16
3.88578e-16
5.55112e-17
6.10623e-16
-1.66533e-16
1.11022e-16
-3.33067e-16
-1.66533e-16
-1.66533e-16
-2.77556e-16
2.22045e-16
-1.11022e-16
2.22045e-16
0
-1.11022e-16
-4.44089e-16
-4.44089e-16
1.11022e-16
-4.44089e-16
-1.11022e-16
-7.77156e-16
-1.11022e-16
-3.33067e-16
-3.33067e-16
-2.22045e-16
0
0
-2.22045e-16
2.22045e-16
-2.22045e-16
0
-2.22045e-16
3.33067e-16
2.22045e-16
1.11022e-16
1.11022e-16
1.11022e-16
0
-1.11022e-16
3.33067e-16
-2.22045e-16
2.22045e-16
-4.44089e-16
2.22045e-16
-1.11022e-16
3.33067e-16
-2.22045e-16
1.11022e-16
0
-1.11022e-16
-2.22045e-16
2.22045e-16
-2.22045e-16
2.22045e-16
-1.11022e-16
2.22045e-16