/*--------------------------------*- C++ -*----------------------------------*\
  =========                 |
  \\      /  F ield         | OpenFOAM: The Open Source CFD Toolbox
   \\    /   O peration     | Website:  https://openfoam.org
    \\  /    A nd           | Version:  13
     \\/     M anipulation  |
\*---------------------------------------------------------------------------*/
FoamFile
{
    format      ascii;
    class       volScalarField;
    location    "0.0009";
    object      Qdot;
}
// * * * * * * * * * * * * * * * * * * * * * * * * * * * * * * * * * * * * * //

dimensions      [1 -1 -3 0 0 0 0];

internalField   nonuniform List<scalar> 
33334
(
2.93379e+08
2.93379e+08
2.93379e+08
2.93379e+08
2.93379e+08
2.93379e+08
2.93379e+08
2.93379e+08
2.93379e+08
2.93379e+08
2.93379e+08
2.93379e+08
2.93379e+08
2.93379e+08
2.93379e+08
2.93379e+08
2.93379e+08
2.93379e+08
2.93379e+08
2.93379e+08
2.93379e+08
2.93379e+08
2.93379e+08
2.93379e+08
2.93379e+08
2.93379e+08
2.93379e+08
2.93379e+08
2.93379e+08
2.93379e+08
2.93379e+08
2.93379e+08
2.93379e+08
2.93379e+08
2.93379e+08
2.93379e+08
2.93367e+08
2.93185e+08
2.92188e+08
2.89319e+08
2.83722e+08
2.75044e+08
2.634e+08
2.49245e+08
2.33229e+08
2.16053e+08
1.98372e+08
1.8074e+08
1.63586e+08
1.4722e+08
1.31848e+08
1.17588e+08
1.04496e+08
9.25748e+07
8.17957e+07
7.21045e+07
6.34387e+07
5.57222e+07
4.888e+07
4.28382e+07
3.75269e+07
3.28822e+07
2.88474e+07
2.53732e+07
2.24177e+07
1.99445e+07
1.792e+07
1.63089e+07
1.50695e+07
1.41499e+07
1.34873e+07
1.30122e+07
1.26471e+07
1.23494e+07
1.21215e+07
1.19405e+07
1.17637e+07
1.15782e+07
1.13853e+07
1.11902e+07
1.09974e+07
1.08089e+07
1.06248e+07
1.04448e+07
1.02695e+07
1.01002e+07
9.93737e+06
9.78037e+06
9.62778e+06
9.47894e+06
9.33451e+06
9.19539e+06
9.06137e+06
8.93084e+06
8.80248e+06
8.67658e+06
8.55469e+06
8.43769e+06
8.32448e+06
8.2131e+06
8.10271e+06
7.99406e+06
7.88809e+06
7.7844e+06
7.68283e+06
7.58706e+06
7.50363e+06
7.43439e+06
7.37112e+06
7.28217e+06
7.11615e+06
6.72706e+06
5.89894e+06
4.38882e+06
2.40994e+06
789843
117493
6127.27
115.825
1.64815
0.0633864
0.0134745
0.00854945
0.0080677
0.00804747
0.00824715
0.00856658
0.0088166
0.00887907
0.0088286
0.00871183
0.00856446
0.00840649
0.00824842
0.00812516
0.0080513
0.00796388
0.00786494
0.00772996
0.00741299
0.00663374
0.0048976
0.002039
0.000201101
3.22256e-06
1.71279e-07
1.12317e-07
1.11228e-07
1.11225e-07
1.11225e-07
1.11225e-07
1.11225e-07
1.11225e-07
1.11225e-07
1.11225e-07
1.11225e-07
1.11225e-07
1.11225e-07
1.11225e-07
1.11225e-07
1.11225e-07
1.11225e-07
1.11225e-07
1.11225e-07
1.11225e-07
1.11225e-07
2.93379e+08
2.93379e+08
2.93379e+08
2.93379e+08
2.93379e+08
2.93379e+08
2.93379e+08
2.93379e+08
2.93379e+08
2.93379e+08
2.93379e+08
2.93379e+08
2.93379e+08
2.93379e+08
2.93379e+08
2.93379e+08
2.93379e+08
2.93379e+08
2.93379e+08
2.93379e+08
2.93379e+08
2.93379e+08
2.93379e+08
2.93379e+08
2.93379e+08
2.93379e+08
2.93379e+08
2.93379e+08
2.93379e+08
2.93379e+08
2.93379e+08
2.93379e+08
2.93379e+08
2.93379e+08
2.93379e+08
2.93379e+08
2.93367e+08
2.93185e+08
2.92188e+08
2.89319e+08
2.83722e+08
2.75044e+08
2.634e+08
2.49245e+08
2.33229e+08
2.16052e+08
1.98372e+08
1.8074e+08
1.63586e+08
1.4722e+08
1.31848e+08
1.17588e+08
1.04496e+08
9.25746e+07
8.17955e+07
7.21043e+07
6.34385e+07
5.5722e+07
4.88798e+07
4.2838e+07
3.75267e+07
3.2882e+07
2.88472e+07
2.5373e+07
2.24175e+07
1.99443e+07
1.79198e+07
1.63087e+07
1.50693e+07
1.41496e+07
1.34871e+07
1.3012e+07
1.26469e+07
1.23494e+07
1.21213e+07
1.19403e+07
1.17634e+07
1.1578e+07
1.13851e+07
1.119e+07
1.09972e+07
1.08087e+07
1.06246e+07
1.04445e+07
1.02693e+07
1.01e+07
9.93716e+06
9.78016e+06
9.62757e+06
9.47873e+06
9.33431e+06
9.19519e+06
9.06118e+06
8.93065e+06
8.80229e+06
8.67638e+06
8.5545e+06
8.4375e+06
8.3243e+06
8.21293e+06
8.10254e+06
7.99389e+06
7.88791e+06
7.78424e+06
7.68266e+06
7.5869e+06
7.50344e+06
7.43421e+06
7.37092e+06
7.282e+06
7.11613e+06
6.72726e+06
5.89954e+06
4.3899e+06
2.41105e+06
790416
117611
6134.78
115.966
1.64965
0.0633948
0.0134755
0.00854908
0.00806708
0.0080468
0.00824645
0.00856588
0.00881596
0.00887848
0.00882803
0.0087113
0.00856395
0.008406
0.00824796
0.00812472
0.00805088
0.00796348
0.00786457
0.00772964
0.00741272
0.00663355
0.0048975
0.00203899
0.000201105
3.22266e-06
1.71281e-07
1.12317e-07
1.11228e-07
1.11225e-07
1.11225e-07
1.11225e-07
1.11225e-07
1.11225e-07
1.11225e-07
1.11225e-07
1.11225e-07
1.11225e-07
1.11225e-07
1.11225e-07
1.11225e-07
1.11225e-07
1.11225e-07
1.11225e-07
1.11225e-07
1.11225e-07
1.11225e-07
2.93379e+08
2.93379e+08
2.93379e+08
2.93379e+08
2.93379e+08
2.93379e+08
2.93379e+08
2.93379e+08
2.93379e+08
2.93379e+08
2.93379e+08
2.93379e+08
2.93379e+08
2.93379e+08
2.93379e+08
2.93379e+08
2.93379e+08
2.93379e+08
2.93379e+08
2.93379e+08
2.93379e+08
2.93379e+08
2.93379e+08
2.93379e+08
2.93379e+08
2.93379e+08
2.93379e+08
2.93379e+08
2.93379e+08
2.93379e+08
2.93379e+08
2.93379e+08
2.93379e+08
2.93379e+08
2.93379e+08
2.93379e+08
2.93367e+08
2.93185e+08
2.92188e+08
2.89319e+08
2.83722e+08
2.75044e+08
2.63399e+08
2.49245e+08
2.33228e+08
2.16052e+08
1.98372e+08
1.80739e+08
1.63585e+08
1.4722e+08
1.31847e+08
1.17588e+08
1.04496e+08
9.25744e+07
8.17953e+07
7.21041e+07
6.34383e+07
5.57218e+07
4.88796e+07
4.28378e+07
3.75265e+07
3.28818e+07
2.8847e+07
2.53728e+07
2.24173e+07
1.99441e+07
1.79196e+07
1.63085e+07
1.50691e+07
1.41494e+07
1.34869e+07
1.30117e+07
1.26466e+07
1.23492e+07
1.2121e+07
1.194e+07
1.17632e+07
1.15777e+07
1.13848e+07
1.11897e+07
1.09969e+07
1.08084e+07
1.06243e+07
1.04443e+07
1.0269e+07
1.00997e+07
9.93687e+06
9.77986e+06
9.62727e+06
9.47844e+06
9.33401e+06
9.19489e+06
9.06088e+06
8.93035e+06
8.802e+06
8.67609e+06
8.55421e+06
8.4372e+06
8.324e+06
8.21263e+06
8.10225e+06
7.99359e+06
7.88763e+06
7.78394e+06
7.68238e+06
7.5866e+06
7.50316e+06
7.4339e+06
7.37062e+06
7.28171e+06
7.11599e+06
6.72736e+06
5.90014e+06
4.39099e+06
2.41223e+06
791096
117769
6145.83
116.196
1.65226
0.0634731
0.0134783
0.00854862
0.00806635
0.00804601
0.00824558
0.008565
0.00881512
0.00887772
0.0088273
0.00871062
0.00856333
0.00840544
0.00824744
0.00812424
0.00805043
0.00796308
0.00786422
0.00772935
0.0074125
0.00663341
0.00489745
0.002039
0.000201111
3.22277e-06
1.71282e-07
1.12317e-07
1.11228e-07
1.11225e-07
1.11225e-07
1.11225e-07
1.11225e-07
1.11225e-07
1.11225e-07
1.11225e-07
1.11225e-07
1.11225e-07
1.11225e-07
1.11225e-07
1.11225e-07
1.11225e-07
1.11225e-07
1.11225e-07
1.11225e-07
1.11225e-07
1.11225e-07
2.93379e+08
2.93379e+08
2.93379e+08
2.93379e+08
2.93379e+08
2.93379e+08
2.93379e+08
2.93379e+08
2.93379e+08
2.93379e+08
2.93379e+08
2.93379e+08
2.93379e+08
2.93379e+08
2.93379e+08
2.93379e+08
2.93379e+08
2.93379e+08
2.93379e+08
2.93379e+08
2.93379e+08
2.93379e+08
2.93379e+08
2.93379e+08
2.93379e+08
2.93379e+08
2.93379e+08
2.93379e+08
2.93379e+08
2.93379e+08
2.93379e+08
2.93379e+08
2.93379e+08
2.93379e+08
2.93379e+08
2.93379e+08
2.93367e+08
2.93185e+08
2.92188e+08
2.89319e+08
2.83722e+08
2.75044e+08
2.63399e+08
2.49245e+08
2.33228e+08
2.16052e+08
1.98372e+08
1.80739e+08
1.63585e+08
1.47219e+08
1.31847e+08
1.17588e+08
1.04495e+08
9.25743e+07
8.17952e+07
7.2104e+07
6.34382e+07
5.57217e+07
4.88795e+07
4.28377e+07
3.75264e+07
3.28817e+07
2.88469e+07
2.53727e+07
2.24172e+07
1.9944e+07
1.79195e+07
1.63084e+07
1.5069e+07
1.41493e+07
1.34867e+07
1.30116e+07
1.26465e+07
1.23491e+07
1.2121e+07
1.19399e+07
1.1763e+07
1.15776e+07
1.13847e+07
1.11895e+07
1.09967e+07
1.08083e+07
1.06241e+07
1.04441e+07
1.02688e+07
1.00995e+07
9.93667e+06
9.77967e+06
9.62707e+06
9.47824e+06
9.3338e+06
9.19468e+06
9.06067e+06
8.93014e+06
8.80178e+06
8.67587e+06
8.55398e+06
8.43698e+06
8.32378e+06
8.2124e+06
8.10202e+06
7.99337e+06
7.8874e+06
7.78372e+06
7.68215e+06
7.58637e+06
7.50291e+06
7.43366e+06
7.37038e+06
7.28149e+06
7.11584e+06
6.72739e+06
5.90044e+06
4.39167e+06
2.41303e+06
791573
117882
6153.94
116.366
1.65423
0.0635163
0.0134809
0.0085484
0.00806591
0.00804554
0.00824505
0.00856445
0.00881462
0.00887728
0.00882689
0.00871026
0.00856302
0.00840517
0.00824721
0.00812403
0.00805026
0.00796293
0.0078641
0.00772926
0.00741245
0.0066334
0.00489747
0.00203902
0.000201116
3.22286e-06
1.71284e-07
1.12318e-07
1.11228e-07
1.11225e-07
1.11225e-07
1.11225e-07
1.11225e-07
1.11225e-07
1.11225e-07
1.11225e-07
1.11225e-07
1.11225e-07
1.11225e-07
1.11225e-07
1.11225e-07
1.11225e-07
1.11225e-07
1.11225e-07
1.11225e-07
1.11225e-07
1.11225e-07
2.93379e+08
2.93379e+08
2.93379e+08
2.93379e+08
2.93379e+08
2.93379e+08
2.93379e+08
2.93379e+08
2.93379e+08
2.93379e+08
2.93379e+08
2.93379e+08
2.93379e+08
2.93379e+08
2.93379e+08
2.93379e+08
2.93379e+08
2.93379e+08
2.93379e+08
2.93379e+08
2.93379e+08
2.93379e+08
2.93379e+08
2.93379e+08
2.93379e+08
2.93379e+08
2.93379e+08
2.93379e+08
2.93379e+08
2.93379e+08
2.93379e+08
2.93379e+08
2.93379e+08
2.93379e+08
2.93379e+08
2.93379e+08
2.93367e+08
2.93185e+08
2.92188e+08
2.89319e+08
2.83722e+08
2.75044e+08
2.63399e+08
2.49245e+08
2.33228e+08
2.16052e+08
1.98371e+08
1.80739e+08
1.63585e+08
1.47219e+08
1.31847e+08
1.17588e+08
1.04495e+08
9.25742e+07
8.17951e+07
7.21039e+07
6.34381e+07
5.57217e+07
4.88794e+07
4.28376e+07
3.75263e+07
3.28817e+07
2.88468e+07
2.53726e+07
2.24171e+07
1.99439e+07
1.79194e+07
1.63083e+07
1.50689e+07
1.41492e+07
1.34867e+07
1.30115e+07
1.26464e+07
1.2349e+07
1.21209e+07
1.19398e+07
1.1763e+07
1.15775e+07
1.13846e+07
1.11895e+07
1.09967e+07
1.08082e+07
1.0624e+07
1.0444e+07
1.02688e+07
1.00994e+07
9.9366e+06
9.77959e+06
9.62699e+06
9.47816e+06
9.33371e+06
9.19459e+06
9.06057e+06
8.93004e+06
8.80168e+06
8.67577e+06
8.55388e+06
8.43687e+06
8.32367e+06
8.21229e+06
8.1019e+06
7.99325e+06
7.88728e+06
7.78361e+06
7.68203e+06
7.58624e+06
7.50277e+06
7.43353e+06
7.37025e+06
7.28136e+06
7.11574e+06
6.72736e+06
5.90053e+06
4.3919e+06
2.41333e+06
791755
117926
6157.25
116.439
1.65513
0.0635353
0.0134822
0.00854834
0.00806575
0.00804536
0.00824486
0.00856425
0.00881445
0.00887714
0.00882676
0.00871016
0.00856294
0.00840511
0.00824716
0.00812399
0.00805022
0.00796289
0.00786408
0.00772925
0.00741246
0.00663341
0.00489749
0.00203905
0.000201122
3.22296e-06
1.71285e-07
1.12318e-07
1.11228e-07
1.11225e-07
1.11225e-07
1.11225e-07
1.11225e-07
1.11225e-07
1.11225e-07
1.11225e-07
1.11225e-07
1.11225e-07
1.11225e-07
1.11225e-07
1.11225e-07
1.11225e-07
1.11225e-07
1.11225e-07
1.11225e-07
1.11225e-07
1.11225e-07
2.93379e+08
2.93379e+08
2.93379e+08
2.93379e+08
2.93379e+08
2.93379e+08
2.93379e+08
2.93379e+08
2.93379e+08
2.93379e+08
2.93379e+08
2.93379e+08
2.93379e+08
2.93379e+08
2.93379e+08
2.93379e+08
2.93379e+08
2.93379e+08
2.93379e+08
2.93379e+08
2.93379e+08
2.93379e+08
2.93379e+08
2.93379e+08
2.93379e+08
2.93379e+08
2.93379e+08
2.93379e+08
2.93379e+08
2.93379e+08
2.93379e+08
2.93379e+08
2.93379e+08
2.93379e+08
2.93379e+08
2.93379e+08
2.93367e+08
2.93185e+08
2.92188e+08
2.89319e+08
2.83722e+08
2.75043e+08
2.63399e+08
2.49244e+08
2.33228e+08
2.16052e+08
1.98371e+08
1.80739e+08
1.63585e+08
1.47219e+08
1.31847e+08
1.17588e+08
1.04495e+08
9.25741e+07
8.1795e+07
7.21038e+07
6.34381e+07
5.57216e+07
4.88793e+07
4.28376e+07
3.75263e+07
3.28816e+07
2.88468e+07
2.53726e+07
2.24171e+07
1.99439e+07
1.79194e+07
1.63083e+07
1.50689e+07
1.41492e+07
1.34867e+07
1.30115e+07
1.26464e+07
1.2349e+07
1.21209e+07
1.19398e+07
1.1763e+07
1.15775e+07
1.13846e+07
1.11895e+07
1.09967e+07
1.08082e+07
1.0624e+07
1.0444e+07
1.02687e+07
1.00994e+07
9.93658e+06
9.77957e+06
9.62697e+06
9.47813e+06
9.33369e+06
9.19457e+06
9.06055e+06
8.93001e+06
8.80165e+06
8.67574e+06
8.55384e+06
8.43684e+06
8.32364e+06
8.21225e+06
8.10187e+06
7.99321e+06
7.88724e+06
7.78356e+06
7.68198e+06
7.5862e+06
7.50273e+06
7.43348e+06
7.3702e+06
7.28131e+06
7.1157e+06
6.72734e+06
5.90054e+06
4.39196e+06
2.41339e+06
791794
117936
6157.99
116.457
1.65537
0.0635418
0.0134827
0.00854835
0.00806573
0.00804534
0.00824482
0.00856422
0.00881442
0.00887712
0.00882675
0.00871014
0.00856293
0.00840511
0.00824715
0.00812399
0.00805022
0.00796289
0.00786408
0.00772926
0.00741247
0.00663343
0.00489752
0.00203907
0.000201127
3.22305e-06
1.71287e-07
1.12318e-07
1.11228e-07
1.11225e-07
1.11225e-07
1.11225e-07
1.11225e-07
1.11225e-07
1.11225e-07
1.11225e-07
1.11225e-07
1.11225e-07
1.11225e-07
1.11225e-07
1.11225e-07
1.11225e-07
1.11225e-07
1.11225e-07
1.11225e-07
1.11225e-07
1.11225e-07
2.93379e+08
2.93379e+08
2.93379e+08
2.93379e+08
2.93379e+08
2.93379e+08
2.93379e+08
2.93379e+08
2.93379e+08
2.93379e+08
2.93379e+08
2.93379e+08
2.93379e+08
2.93379e+08
2.93379e+08
2.93379e+08
2.93379e+08
2.93379e+08
2.93379e+08
2.93379e+08
2.93379e+08
2.93379e+08
2.93379e+08
2.93379e+08
2.93379e+08
2.93379e+08
2.93379e+08
2.93379e+08
2.93379e+08
2.93379e+08
2.93379e+08
2.93379e+08
2.93379e+08
2.93379e+08
2.93379e+08
2.93379e+08
2.93367e+08
2.93185e+08
2.92188e+08
2.89319e+08
2.83722e+08
2.75043e+08
2.63399e+08
2.49244e+08
2.33228e+08
2.16052e+08
1.98371e+08
1.80739e+08
1.63585e+08
1.47219e+08
1.31847e+08
1.17588e+08
1.04495e+08
9.2574e+07
8.17949e+07
7.21038e+07
6.3438e+07
5.57215e+07
4.88793e+07
4.28375e+07
3.75262e+07
3.28816e+07
2.88467e+07
2.53726e+07
2.2417e+07
1.99438e+07
1.79194e+07
1.63083e+07
1.50689e+07
1.41492e+07
1.34866e+07
1.30115e+07
1.26464e+07
1.2349e+07
1.21209e+07
1.19398e+07
1.1763e+07
1.15775e+07
1.13846e+07
1.11895e+07
1.09967e+07
1.08082e+07
1.0624e+07
1.0444e+07
1.02687e+07
1.00994e+07
9.93658e+06
9.77957e+06
9.62697e+06
9.47813e+06
9.33368e+06
9.19456e+06
9.06054e+06
8.93001e+06
8.80164e+06
8.67574e+06
8.55384e+06
8.43683e+06
8.32363e+06
8.21225e+06
8.10186e+06
7.99321e+06
7.88723e+06
7.78355e+06
7.68197e+06
7.58619e+06
7.50272e+06
7.43347e+06
7.37019e+06
7.2813e+06
7.11568e+06
6.72733e+06
5.90053e+06
4.39195e+06
2.41339e+06
791792
117935
6158.02
116.459
1.6554
0.0635439
0.013483
0.00854839
0.00806574
0.00804535
0.00824483
0.00856423
0.00881443
0.00887713
0.00882676
0.00871016
0.00856295
0.00840512
0.00824716
0.00812399
0.00805022
0.0079629
0.00786409
0.00772927
0.00741248
0.00663345
0.00489755
0.0020391
0.000201132
3.22314e-06
1.71288e-07
1.12318e-07
1.11228e-07
1.11225e-07
1.11225e-07
1.11225e-07
1.11225e-07
1.11225e-07
1.11225e-07
1.11225e-07
1.11225e-07
1.11225e-07
1.11225e-07
1.11225e-07
1.11225e-07
1.11225e-07
1.11225e-07
1.11225e-07
1.11225e-07
1.11225e-07
1.11225e-07
2.93379e+08
2.93379e+08
2.93379e+08
2.93379e+08
2.93379e+08
2.93379e+08
2.93379e+08
2.93379e+08
2.93379e+08
2.93379e+08
2.93379e+08
2.93379e+08
2.93379e+08
2.93379e+08
2.93379e+08
2.93379e+08
2.93379e+08
2.93379e+08
2.93379e+08
2.93379e+08
2.93379e+08
2.93379e+08
2.93379e+08
2.93379e+08
2.93379e+08
2.93379e+08
2.93379e+08
2.93379e+08
2.93379e+08
2.93379e+08
2.93379e+08
2.93379e+08
2.93379e+08
2.93379e+08
2.93379e+08
2.93379e+08
2.93367e+08
2.93185e+08
2.92188e+08
2.89319e+08
2.83722e+08
2.75043e+08
2.63399e+08
2.49244e+08
2.33228e+08
2.16052e+08
1.98371e+08
1.80739e+08
1.63585e+08
1.47219e+08
1.31847e+08
1.17588e+08
1.04495e+08
9.25739e+07
8.17948e+07
7.21037e+07
6.34379e+07
5.57214e+07
4.88792e+07
4.28374e+07
3.75262e+07
3.28815e+07
2.88467e+07
2.53725e+07
2.2417e+07
1.99438e+07
1.79193e+07
1.63082e+07
1.50688e+07
1.41492e+07
1.34866e+07
1.30115e+07
1.26464e+07
1.2349e+07
1.21209e+07
1.19398e+07
1.1763e+07
1.15775e+07
1.13846e+07
1.11895e+07
1.09967e+07
1.08082e+07
1.0624e+07
1.0444e+07
1.02687e+07
1.00994e+07
9.93658e+06
9.77957e+06
9.62697e+06
9.47813e+06
9.33369e+06
9.19457e+06
9.06054e+06
8.93001e+06
8.80164e+06
8.67574e+06
8.55384e+06
8.43683e+06
8.32363e+06
8.21225e+06
8.10186e+06
7.99321e+06
7.88724e+06
7.78355e+06
7.68197e+06
7.58619e+06
7.50272e+06
7.43347e+06
7.3702e+06
7.2813e+06
7.11568e+06
6.72731e+06
5.9005e+06
4.3919e+06
2.41335e+06
791773
117932
6157.85
116.458
1.6554
0.0635446
0.0134832
0.00854843
0.00806577
0.00804537
0.00824485
0.00856425
0.00881445
0.00887716
0.00882678
0.00871018
0.00856297
0.00840513
0.00824717
0.008124
0.00805023
0.0079629
0.0078641
0.00772928
0.00741249
0.00663347
0.00489757
0.00203912
0.000201136
3.22323e-06
1.71289e-07
1.12318e-07
1.11228e-07
1.11225e-07
1.11225e-07
1.11225e-07
1.11225e-07
1.11225e-07
1.11225e-07
1.11225e-07
1.11225e-07
1.11225e-07
1.11225e-07
1.11225e-07
1.11225e-07
1.11225e-07
1.11225e-07
1.11225e-07
1.11225e-07
1.11225e-07
1.11225e-07
2.93379e+08
2.93379e+08
2.93379e+08
2.93379e+08
2.93379e+08
2.93379e+08
2.93379e+08
2.93379e+08
2.93379e+08
2.93379e+08
2.93379e+08
2.93379e+08
2.93379e+08
2.93379e+08
2.93379e+08
2.93379e+08
2.93379e+08
2.93379e+08
2.93379e+08
2.93379e+08
2.93379e+08
2.93379e+08
2.93379e+08
2.93379e+08
2.93379e+08
2.93379e+08
2.93379e+08
2.93379e+08
2.93379e+08
2.93379e+08
2.93379e+08
2.93379e+08
2.93379e+08
2.93379e+08
2.93379e+08
2.93379e+08
2.93367e+08
2.93185e+08
2.92188e+08
2.89319e+08
2.83722e+08
2.75043e+08
2.63399e+08
2.49244e+08
2.33228e+08
2.16051e+08
1.98371e+08
1.80739e+08
1.63585e+08
1.47219e+08
1.31847e+08
1.17587e+08
1.04495e+08
9.25738e+07
8.17947e+07
7.21036e+07
6.34378e+07
5.57214e+07
4.88792e+07
4.28374e+07
3.75261e+07
3.28815e+07
2.88467e+07
2.53725e+07
2.2417e+07
1.99438e+07
1.79193e+07
1.63082e+07
1.50688e+07
1.41491e+07
1.34866e+07
1.30115e+07
1.26464e+07
1.2349e+07
1.21209e+07
1.19398e+07
1.1763e+07
1.15775e+07
1.13846e+07
1.11895e+07
1.09967e+07
1.08082e+07
1.0624e+07
1.0444e+07
1.02687e+07
1.00994e+07
9.93658e+06
9.77957e+06
9.62697e+06
9.47814e+06
9.33369e+06
9.19457e+06
9.06054e+06
8.93001e+06
8.80164e+06
8.67574e+06
8.55384e+06
8.43683e+06
8.32363e+06
8.21225e+06
8.10186e+06
7.99321e+06
7.88724e+06
7.78356e+06
7.68198e+06
7.58619e+06
7.50272e+06
7.43348e+06
7.3702e+06
7.2813e+06
7.11568e+06
6.72731e+06
5.90047e+06
4.39186e+06
2.4133e+06
791746
117926
6157.52
116.452
1.65539
0.0635444
0.0134832
0.00854847
0.0080658
0.0080454
0.00824488
0.00856428
0.00881448
0.00887719
0.00882681
0.00871021
0.00856299
0.00840515
0.00824719
0.00812401
0.00805023
0.00796291
0.00786411
0.00772929
0.00741251
0.00663349
0.0048976
0.00203914
0.000201141
3.22331e-06
1.7129e-07
1.12318e-07
1.11228e-07
1.11225e-07
1.11225e-07
1.11225e-07
1.11225e-07
1.11225e-07
1.11225e-07
1.11225e-07
1.11225e-07
1.11225e-07
1.11225e-07
1.11225e-07
1.11225e-07
1.11225e-07
1.11225e-07
1.11225e-07
1.11225e-07
1.11225e-07
1.11225e-07
2.93379e+08
2.93379e+08
2.93379e+08
2.93379e+08
2.93379e+08
2.93379e+08
2.93379e+08
2.93379e+08
2.93379e+08
2.93379e+08
2.93379e+08
2.93379e+08
2.93379e+08
2.93379e+08
2.93379e+08
2.93379e+08
2.93379e+08
2.93379e+08
2.93379e+08
2.93379e+08
2.93379e+08
2.93379e+08
2.93379e+08
2.93379e+08
2.93379e+08
2.93379e+08
2.93379e+08
2.93379e+08
2.93379e+08
2.93379e+08
2.93379e+08
2.93379e+08
2.93379e+08
2.93379e+08
2.93379e+08
2.93379e+08
2.93367e+08
2.93184e+08
2.92188e+08
2.89319e+08
2.83722e+08
2.75043e+08
2.63399e+08
2.49244e+08
2.33228e+08
2.16051e+08
1.98371e+08
1.80738e+08
1.63584e+08
1.47219e+08
1.31846e+08
1.17587e+08
1.04495e+08
9.25737e+07
8.17946e+07
7.21035e+07
6.34378e+07
5.57213e+07
4.88791e+07
4.28373e+07
3.75261e+07
3.28814e+07
2.88466e+07
2.53724e+07
2.24169e+07
1.99437e+07
1.79192e+07
1.63082e+07
1.50688e+07
1.41491e+07
1.34866e+07
1.30114e+07
1.26464e+07
1.2349e+07
1.21209e+07
1.19398e+07
1.1763e+07
1.15775e+07
1.13846e+07
1.11895e+07
1.09967e+07
1.08082e+07
1.0624e+07
1.0444e+07
1.02687e+07
1.00994e+07
9.93658e+06
9.77957e+06
9.62697e+06
9.47814e+06
9.33369e+06
9.19457e+06
9.06054e+06
8.93001e+06
8.80165e+06
8.67575e+06
8.55385e+06
8.43684e+06
8.32363e+06
8.21225e+06
8.10187e+06
7.99322e+06
7.88724e+06
7.78356e+06
7.68198e+06
7.58619e+06
7.50273e+06
7.43349e+06
7.37021e+06
7.2813e+06
7.11569e+06
6.7273e+06
5.90045e+06
4.39181e+06
2.41325e+06
791720
117921
6157.16
116.446
1.65533
0.063544
0.0134833
0.0085485
0.00806583
0.00804543
0.00824491
0.0085643
0.00881451
0.00887722
0.00882684
0.00871024
0.00856302
0.00840517
0.00824721
0.00812402
0.00805025
0.00796292
0.00786412
0.0077293
0.00741253
0.00663351
0.00489762
0.00203916
0.000201145
3.22338e-06
1.71291e-07
1.12318e-07
1.11228e-07
1.11225e-07
1.11225e-07
1.11225e-07
1.11225e-07
1.11225e-07
1.11225e-07
1.11225e-07
1.11225e-07
1.11225e-07
1.11225e-07
1.11225e-07
1.11225e-07
1.11225e-07
1.11225e-07
1.11225e-07
1.11225e-07
1.11225e-07
1.11225e-07
2.93379e+08
2.93379e+08
2.93379e+08
2.93379e+08
2.93379e+08
2.93379e+08
2.93379e+08
2.93379e+08
2.93379e+08
2.93379e+08
2.93379e+08
2.93379e+08
2.93379e+08
2.93379e+08
2.93379e+08
2.93379e+08
2.93379e+08
2.93379e+08
2.93379e+08
2.93379e+08
2.93379e+08
2.93379e+08
2.93379e+08
2.93379e+08
2.93379e+08
2.93379e+08
2.93379e+08
2.93379e+08
2.93379e+08
2.93379e+08
2.93379e+08
2.93379e+08
2.93379e+08
2.93379e+08
2.93379e+08
2.93379e+08
2.93367e+08
2.93184e+08
2.92188e+08
2.89319e+08
2.83722e+08
2.75043e+08
2.63399e+08
2.49244e+08
2.33227e+08
2.16051e+08
1.98371e+08
1.80738e+08
1.63584e+08
1.47219e+08
1.31846e+08
1.17587e+08
1.04495e+08
9.25736e+07
8.17945e+07
7.21034e+07
6.34377e+07
5.57213e+07
4.8879e+07
4.28373e+07
3.7526e+07
3.28814e+07
2.88466e+07
2.53724e+07
2.24169e+07
1.99437e+07
1.79192e+07
1.63081e+07
1.50687e+07
1.41491e+07
1.34865e+07
1.30114e+07
1.26463e+07
1.2349e+07
1.21209e+07
1.19398e+07
1.1763e+07
1.15775e+07
1.13846e+07
1.11895e+07
1.09967e+07
1.08082e+07
1.0624e+07
1.0444e+07
1.02688e+07
1.00994e+07
9.93658e+06
9.77957e+06
9.62697e+06
9.47814e+06
9.33369e+06
9.19457e+06
9.06054e+06
8.93002e+06
8.80165e+06
8.67575e+06
8.55385e+06
8.43684e+06
8.32364e+06
8.21225e+06
8.10187e+06
7.99322e+06
7.88725e+06
7.78357e+06
7.68198e+06
7.5862e+06
7.50273e+06
7.43349e+06
7.37022e+06
7.28131e+06
7.11569e+06
6.7273e+06
5.90044e+06
4.39179e+06
2.41322e+06
791701
117917
6156.89
116.441
1.65526
0.0635434
0.0134833
0.00854853
0.00806585
0.00804545
0.00824493
0.00856433
0.00881454
0.00887724
0.00882687
0.00871026
0.00856304
0.00840519
0.00824722
0.00812404
0.00805026
0.00796294
0.00786413
0.00772932
0.00741255
0.00663354
0.00489765
0.00203918
0.000201149
3.22345e-06
1.71292e-07
1.12318e-07
1.11228e-07
1.11225e-07
1.11225e-07
1.11225e-07
1.11225e-07
1.11225e-07
1.11225e-07
1.11225e-07
1.11225e-07
1.11225e-07
1.11225e-07
1.11225e-07
1.11225e-07
1.11225e-07
1.11225e-07
1.11225e-07
1.11225e-07
1.11225e-07
1.11225e-07
2.93379e+08
2.93379e+08
2.93379e+08
2.93379e+08
2.93379e+08
2.93379e+08
2.93379e+08
2.93379e+08
2.93379e+08
2.93379e+08
2.93379e+08
2.93379e+08
2.93379e+08
2.93379e+08
2.93379e+08
2.93379e+08
2.93379e+08
2.93379e+08
2.93379e+08
2.93379e+08
2.93379e+08
2.93379e+08
2.93379e+08
2.93379e+08
2.93379e+08
2.93379e+08
2.93379e+08
2.93379e+08
2.93379e+08
2.93379e+08
2.93379e+08
2.93379e+08
2.93379e+08
2.93379e+08
2.93379e+08
2.93379e+08
2.93367e+08
2.93184e+08
2.92188e+08
2.89319e+08
2.83722e+08
2.75043e+08
2.63399e+08
2.49244e+08
2.33227e+08
2.16051e+08
1.98371e+08
1.80738e+08
1.63584e+08
1.47218e+08
1.31846e+08
1.17587e+08
1.04495e+08
9.25735e+07
8.17944e+07
7.21034e+07
6.34376e+07
5.57212e+07
4.8879e+07
4.28372e+07
3.7526e+07
3.28814e+07
2.88465e+07
2.53724e+07
2.24168e+07
1.99437e+07
1.79192e+07
1.63081e+07
1.50687e+07
1.4149e+07
1.34865e+07
1.30114e+07
1.26463e+07
1.23489e+07
1.21209e+07
1.19398e+07
1.1763e+07
1.15775e+07
1.13846e+07
1.11895e+07
1.09967e+07
1.08082e+07
1.0624e+07
1.0444e+07
1.02688e+07
1.00994e+07
9.93658e+06
9.77957e+06
9.62697e+06
9.47814e+06
9.33369e+06
9.19457e+06
9.06054e+06
8.93002e+06
8.80165e+06
8.67575e+06
8.55385e+06
8.43684e+06
8.32364e+06
8.21226e+06
8.10187e+06
7.99322e+06
7.88725e+06
7.78357e+06
7.68199e+06
7.5862e+06
7.50274e+06
7.4335e+06
7.37023e+06
7.28132e+06
7.1157e+06
6.72731e+06
5.90043e+06
4.39177e+06
2.41319e+06
791688
117914
6156.71
116.438
1.65523
0.063543
0.0134833
0.00854856
0.00806587
0.00804547
0.00824495
0.00856435
0.00881456
0.00887727
0.00882689
0.00871028
0.00856306
0.00840521
0.00824724
0.00812406
0.00805028
0.00796296
0.00786415
0.00772934
0.00741257
0.00663356
0.00489767
0.0020392
0.000201153
3.22352e-06
1.71293e-07
1.12318e-07
1.11228e-07
1.11225e-07
1.11225e-07
1.11225e-07
1.11225e-07
1.11225e-07
1.11225e-07
1.11225e-07
1.11225e-07
1.11225e-07
1.11225e-07
1.11225e-07
1.11225e-07
1.11225e-07
1.11225e-07
1.11225e-07
1.11225e-07
1.11225e-07
1.11225e-07
2.93379e+08
2.93379e+08
2.93379e+08
2.93379e+08
2.93379e+08
2.93379e+08
2.93379e+08
2.93379e+08
2.93379e+08
2.93379e+08
2.93379e+08
2.93379e+08
2.93379e+08
2.93379e+08
2.93379e+08
2.93379e+08
2.93379e+08
2.93379e+08
2.93379e+08
2.93379e+08
2.93379e+08
2.93379e+08
2.93379e+08
2.93379e+08
2.93379e+08
2.93379e+08
2.93379e+08
2.93379e+08
2.93379e+08
2.93379e+08
2.93379e+08
2.93379e+08
2.93379e+08
2.93379e+08
2.93379e+08
2.93379e+08
2.93367e+08
2.93184e+08
2.92188e+08
2.89319e+08
2.83722e+08
2.75043e+08
2.63399e+08
2.49244e+08
2.33227e+08
2.16051e+08
1.9837e+08
1.80738e+08
1.63584e+08
1.47218e+08
1.31846e+08
1.17587e+08
1.04495e+08
9.25734e+07
8.17944e+07
7.21033e+07
6.34376e+07
5.57211e+07
4.88789e+07
4.28372e+07
3.75259e+07
3.28813e+07
2.88465e+07
2.53723e+07
2.24168e+07
1.99436e+07
1.79191e+07
1.63081e+07
1.50687e+07
1.4149e+07
1.34865e+07
1.30114e+07
1.26463e+07
1.23489e+07
1.21209e+07
1.19398e+07
1.1763e+07
1.15775e+07
1.13846e+07
1.11894e+07
1.09967e+07
1.08082e+07
1.0624e+07
1.0444e+07
1.02688e+07
1.00994e+07
9.93658e+06
9.77957e+06
9.62697e+06
9.47814e+06
9.33369e+06
9.19457e+06
9.06054e+06
8.93002e+06
8.80165e+06
8.67575e+06
8.55385e+06
8.43685e+06
8.32365e+06
8.21226e+06
8.10188e+06
7.99323e+06
7.88725e+06
7.78357e+06
7.68199e+06
7.58621e+06
7.50274e+06
7.4335e+06
7.37023e+06
7.28132e+06
7.11571e+06
6.72731e+06
5.90042e+06
4.39175e+06
2.41318e+06
791680
117912
6156.59
116.436
1.6552
0.0635426
0.0134833
0.00854858
0.00806589
0.00804549
0.00824497
0.00856437
0.00881458
0.00887729
0.00882692
0.00871031
0.00856308
0.00840523
0.00824726
0.00812407
0.0080503
0.00796298
0.00786417
0.00772936
0.00741259
0.00663358
0.0048977
0.00203922
0.000201157
3.22358e-06
1.71294e-07
1.12318e-07
1.11228e-07
1.11225e-07
1.11225e-07
1.11225e-07
1.11225e-07
1.11225e-07
1.11225e-07
1.11225e-07
1.11225e-07
1.11225e-07
1.11225e-07
1.11225e-07
1.11225e-07
1.11225e-07
1.11225e-07
1.11225e-07
1.11225e-07
1.11225e-07
1.11225e-07
2.93379e+08
2.93379e+08
2.93379e+08
2.93379e+08
2.93379e+08
2.93379e+08
2.93379e+08
2.93379e+08
2.93379e+08
2.93379e+08
2.93379e+08
2.93379e+08
2.93379e+08
2.93379e+08
2.93379e+08
2.93379e+08
2.93379e+08
2.93379e+08
2.93379e+08
2.93379e+08
2.93379e+08
2.93379e+08
2.93379e+08
2.93379e+08
2.93379e+08
2.93379e+08
2.93379e+08
2.93379e+08
2.93379e+08
2.93379e+08
2.93379e+08
2.93379e+08
2.93379e+08
2.93379e+08
2.93379e+08
2.93379e+08
2.93367e+08
2.93184e+08
2.92188e+08
2.89319e+08
2.83722e+08
2.75043e+08
2.63399e+08
2.49244e+08
2.33227e+08
2.16051e+08
1.9837e+08
1.80738e+08
1.63584e+08
1.47218e+08
1.31846e+08
1.17587e+08
1.04494e+08
9.25734e+07
8.17943e+07
7.21032e+07
6.34375e+07
5.57211e+07
4.88789e+07
4.28371e+07
3.75259e+07
3.28813e+07
2.88465e+07
2.53723e+07
2.24168e+07
1.99436e+07
1.79191e+07
1.6308e+07
1.50686e+07
1.4149e+07
1.34865e+07
1.30114e+07
1.26463e+07
1.23489e+07
1.21209e+07
1.19398e+07
1.1763e+07
1.15775e+07
1.13846e+07
1.11894e+07
1.09967e+07
1.08082e+07
1.0624e+07
1.0444e+07
1.02688e+07
1.00994e+07
9.93659e+06
9.77958e+06
9.62697e+06
9.47814e+06
9.33369e+06
9.19458e+06
9.06055e+06
8.93002e+06
8.80165e+06
8.67576e+06
8.55385e+06
8.43685e+06
8.32365e+06
8.21226e+06
8.10188e+06
7.99323e+06
7.88726e+06
7.78358e+06
7.682e+06
7.58621e+06
7.50275e+06
7.43351e+06
7.37024e+06
7.28133e+06
7.11571e+06
6.72731e+06
5.90042e+06
4.39175e+06
2.41317e+06
791673
117910
6156.49
116.434
1.6552
0.0635424
0.0134833
0.0085486
0.00806591
0.00804551
0.00824499
0.0085644
0.00881461
0.00887731
0.00882694
0.00871032
0.00856309
0.00840524
0.00824727
0.00812409
0.00805032
0.007963
0.0078642
0.00772939
0.00741261
0.00663361
0.00489772
0.00203924
0.00020116
3.22364e-06
1.71295e-07
1.12318e-07
1.11228e-07
1.11225e-07
1.11225e-07
1.11225e-07
1.11225e-07
1.11225e-07
1.11225e-07
1.11225e-07
1.11225e-07
1.11225e-07
1.11225e-07
1.11225e-07
1.11225e-07
1.11225e-07
1.11225e-07
1.11225e-07
1.11225e-07
1.11225e-07
1.11225e-07
2.93379e+08
2.93379e+08
2.93379e+08
2.93379e+08
2.93379e+08
2.93379e+08
2.93379e+08
2.93379e+08
2.93379e+08
2.93379e+08
2.93379e+08
2.93379e+08
2.93379e+08
2.93379e+08
2.93379e+08
2.93379e+08
2.93379e+08
2.93379e+08
2.93379e+08
2.93379e+08
2.93379e+08
2.93379e+08
2.93379e+08
2.93379e+08
2.93379e+08
2.93379e+08
2.93379e+08
2.93379e+08
2.93379e+08
2.93379e+08
2.93379e+08
2.93379e+08
2.93379e+08
2.93379e+08
2.93379e+08
2.93379e+08
2.93367e+08
2.93184e+08
2.92188e+08
2.89319e+08
2.83721e+08
2.75043e+08
2.63399e+08
2.49244e+08
2.33227e+08
2.16051e+08
1.9837e+08
1.80738e+08
1.63584e+08
1.47218e+08
1.31846e+08
1.17587e+08
1.04494e+08
9.25733e+07
8.17942e+07
7.21032e+07
6.34374e+07
5.5721e+07
4.88788e+07
4.28371e+07
3.75258e+07
3.28812e+07
2.88464e+07
2.53723e+07
2.24167e+07
1.99436e+07
1.79191e+07
1.6308e+07
1.50686e+07
1.41489e+07
1.34864e+07
1.30113e+07
1.26463e+07
1.23489e+07
1.21209e+07
1.19398e+07
1.1763e+07
1.15775e+07
1.13846e+07
1.11894e+07
1.09967e+07
1.08082e+07
1.0624e+07
1.0444e+07
1.02688e+07
1.00994e+07
9.93659e+06
9.77958e+06
9.62698e+06
9.47814e+06
9.33369e+06
9.19458e+06
9.06055e+06
8.93002e+06
8.80165e+06
8.67576e+06
8.55386e+06
8.43685e+06
8.32365e+06
8.21227e+06
8.10188e+06
7.99323e+06
7.88726e+06
7.78358e+06
7.682e+06
7.58622e+06
7.50275e+06
7.43352e+06
7.37025e+06
7.28133e+06
7.11572e+06
6.72731e+06
5.90042e+06
4.39174e+06
2.41316e+06
791668
117909
6156.41
116.432
1.65519
0.0635422
0.0134833
0.00854862
0.00806593
0.00804553
0.00824501
0.00856442
0.00881463
0.00887734
0.00882696
0.00871034
0.00856311
0.00840526
0.00824729
0.00812411
0.00805034
0.00796302
0.00786422
0.00772941
0.00741264
0.00663363
0.00489775
0.00203926
0.000201163
3.2237e-06
1.71296e-07
1.12318e-07
1.11228e-07
1.11225e-07
1.11225e-07
1.11225e-07
1.11225e-07
1.11225e-07
1.11225e-07
1.11225e-07
1.11225e-07
1.11225e-07
1.11225e-07
1.11225e-07
1.11225e-07
1.11225e-07
1.11225e-07
1.11225e-07
1.11225e-07
1.11225e-07
1.11225e-07
2.93379e+08
2.93379e+08
2.93379e+08
2.93379e+08
2.93379e+08
2.93379e+08
2.93379e+08
2.93379e+08
2.93379e+08
2.93379e+08
2.93379e+08
2.93379e+08
2.93379e+08
2.93379e+08
2.93379e+08
2.93379e+08
2.93379e+08
2.93379e+08
2.93379e+08
2.93379e+08
2.93379e+08
2.93379e+08
2.93379e+08
2.93379e+08
2.93379e+08
2.93379e+08
2.93379e+08
2.93379e+08