/*--------------------------------*- C++ -*----------------------------------*\
  =========                 |
  \\      /  F ield         | OpenFOAM: The Open Source CFD Toolbox
   \\    /   O peration     | Website:  https://openfoam.org
    \\  /    A nd           | Version:  13
     \\/     M anipulation  |
\*---------------------------------------------------------------------------*/
FoamFile
{
    format      ascii;
    class       volScalarField;
    location    "0.0018";
    object      CH4;
}
// * * * * * * * * * * * * * * * * * * * * * * * * * * * * * * * * * * * * * //

dimensions      [];

internalField   nonuniform List<scalar> 
33334
(
1.64206e-30
1.66137e-30
1.7455e-30
1.96576e-30
2.42552e-30
3.28664e-30
4.84451e-30
7.69804e-30
1.31295e-29
2.39929e-29
4.69475e-29
9.81517e-29
2.17821e-28
5.08111e-28
1.23198e-27
3.07067e-27
7.78928e-27
1.99387e-26
5.11485e-26
1.30798e-25
3.32162e-25
8.35651e-25
2.08044e-24
5.12702e-24
1.25271e-23
3.04267e-23
7.36893e-23
1.78397e-22
4.31919e-22
1.04341e-21
2.50518e-21
5.94674e-21
1.38791e-20
3.16871e-20
7.04818e-20
1.52265e-19
3.18732e-19
6.4528e-19
1.26148e-18
2.37714e-18
4.31184e-18
7.52183e-18
1.26143e-17
2.03376e-17
3.15408e-17
4.71027e-17
6.78378e-17
9.43824e-17
1.27085e-16
1.6596e-16
2.10644e-16
2.59771e-16
3.08762e-16
3.4735e-16
3.65201e-16
3.66592e-16
3.62221e-16
3.49202e-16
3.27255e-16
2.9943e-16
2.69815e-16
2.41899e-16
2.17761e-16
1.98047e-16
1.82474e-16
1.70388e-16
1.61143e-16
1.54207e-16
1.49189e-16
1.4584e-16
1.44012e-16
1.43431e-16
1.44052e-16
1.46384e-16
1.50304e-16
1.55549e-16
1.62303e-16
1.71088e-16
1.82668e-16
1.97967e-16
2.18227e-16
2.45595e-16
2.83178e-16
3.34719e-16
4.06707e-16
5.10382e-16
6.63442e-16
8.96059e-16
1.25889e-15
1.84425e-15
2.82656e-15
4.55111e-15
7.73019e-15
1.38972e-14
2.65492e-14
5.4169e-14
1.18513e-13
2.79692e-13
7.18641e-13
2.0224e-12
6.26987e-12
2.1706e-11
8.49332e-11
3.77282e-10
1.93626e-09
1.18523e-08
8.8206e-08
8.33858e-07
1.10593e-05
0.000225377
0.0062106
0.0370431
0.0487138
0.0492142
0.0492391
0.0492637
0.0492891
0.049314
0.0493385
0.0493626
0.0493863
0.0494094
0.0494318
0.0494533
0.049474
0.0494944
0.0495156
0.0495395
0.0495688
0.049607
0.0496569
0.0497191
0.0497896
0.0498596
0.0499191
0.0499612
0.0499854
0.049996
0.0499993
0.0499999
0.05
0.05
0.05
0.05
0.05
0.05
0.05
0.05
0.05
0.05
0.05
0.05
0.05
0.05
0.05
0.05
0.05
0.05
0.05
0.05
0.05
0.05
0.05
0.05
0.05
0.05
1.66137e-30
1.68044e-30
1.76536e-30
1.98847e-30
2.45375e-30
3.32312e-30
4.88924e-30
7.74312e-30
1.31539e-29
2.39665e-29
4.68239e-29
9.78094e-29
2.16943e-28
5.05855e-28
1.22606e-27
3.0547e-27
7.7454e-27
1.98169e-26
5.08105e-26
1.29865e-25
3.29602e-25
8.28685e-25
2.06165e-24
5.07676e-24
1.23943e-23
3.00813e-23
7.27916e-23
1.75959e-22
4.25023e-22
1.02465e-21
2.45663e-21
5.82725e-21
1.35996e-20
3.10674e-20
6.91821e-20
1.49684e-19
3.13848e-19
6.36316e-19
1.24506e-18
2.34787e-18
4.2619e-18
7.4404e-18
1.24875e-17
2.01491e-17
3.12736e-17
4.67415e-17
6.73728e-17
9.38126e-17
1.26418e-16
1.65211e-16
2.09838e-16
2.58981e-16
3.0833e-16
3.48147e-16
3.67596e-16
3.69713e-16
3.65647e-16
3.531e-16
3.3141e-16
3.03492e-16
2.73516e-16
2.451e-16
2.20434e-16
2.0024e-16
1.84267e-16
1.71863e-16
1.62362e-16
1.55222e-16
1.50042e-16
1.46567e-16
1.44642e-16
1.43998e-16
1.44554e-16
1.4681e-16
1.50707e-16
1.55971e-16
1.62783e-16
1.71666e-16
1.83369e-16
1.9885e-16
2.1935e-16
2.46485e-16
2.83365e-16
3.34112e-16
4.04653e-16
5.06998e-16
6.57847e-16
8.84838e-16
1.23701e-15
1.80261e-15
2.74761e-15
4.39914e-15
7.43606e-15
1.33189e-14
2.53662e-14
5.15096e-14
1.11972e-13
2.62356e-13
6.69362e-13
1.8709e-12
5.76092e-12
1.97929e-11
7.67069e-11
3.37953e-10
1.72818e-09
1.0633e-08
8.09279e-08
7.90521e-07
1.05727e-05
0.000218426
0.00606554
0.0368656
0.0486929
0.0492145
0.0492393
0.0492638
0.049289
0.0493139
0.0493383
0.0493624
0.0493861
0.0494092
0.0494316
0.0494531
0.0494738
0.0494942
0.0495154
0.0495392
0.0495685
0.0496065
0.0496563
0.0497184
0.0497889
0.0498591
0.0499187
0.049961
0.0499853
0.049996
0.0499993
0.0499999
0.05
0.05
0.05
0.05
0.05
0.05
0.05
0.05
0.05
0.05
0.05
0.05
0.05
0.05
0.05
0.05
0.05
0.05
0.05
0.05
0.05
0.05
0.05
0.05
0.05
0.05
1.7455e-30
1.76536e-30
1.85458e-30
2.0897e-30
2.58048e-30
3.49606e-30
5.13576e-30
8.09697e-30
1.3667e-29
2.47628e-29
4.82097e-29
1.00476e-28
2.22492e-28
5.18088e-28
1.2541e-27
3.12043e-27
7.90096e-27
2.01847e-26
5.16711e-26
1.31842e-25
3.34027e-25
8.38237e-25
2.08131e-24
5.1148e-24
1.2462e-23
3.01856e-23
7.28958e-23
1.75817e-22
4.23738e-22
1.01975e-21
2.44206e-21
5.78968e-21
1.3513e-20
3.08892e-20
6.88602e-20
1.49193e-19
3.13281e-19
6.36037e-19
1.24595e-18
2.35199e-18
4.27371e-18
7.46887e-18
1.25491e-17
2.02722e-17
3.15031e-17
4.71442e-17
6.80408e-17
9.48641e-17
1.27989e-16
1.67435e-16
2.12843e-16
2.62961e-16
3.13812e-16
3.56092e-16
3.77995e-16
3.81194e-16
3.77333e-16
3.64917e-16
3.42819e-16
3.13896e-16
2.82582e-16
2.52758e-16
2.26787e-16
2.05472e-16
1.88579e-16
1.75435e-16
1.65329e-16
1.57686e-16
1.52084e-16
1.48249e-16
1.46011e-16
1.45124e-16
1.45444e-16
1.47363e-16
1.51008e-16
1.56076e-16
1.62735e-16
1.71474e-16
1.83013e-16
1.98423e-16
2.19262e-16
2.47297e-16
2.85043e-16
3.36505e-16
4.07465e-16
5.08929e-16
6.57811e-16
8.80773e-16
1.2259e-15
1.77987e-15
2.7063e-15
4.33048e-15
7.33157e-15
1.31855e-14
2.52573e-14
5.16087e-14
1.12876e-13
2.66202e-13
6.83205e-13
1.92167e-12
5.95771e-12
2.05985e-11
8.05355e-11
3.58871e-10
1.85693e-09
1.15217e-08
8.82144e-08
8.59147e-07
1.13975e-05
0.000235229
0.00646664
0.0373053
0.0487378
0.049215
0.0492397
0.0492641
0.0492893
0.0493142
0.0493386
0.0493627
0.0493864
0.0494095
0.0494319
0.0494534
0.0494741
0.0494945
0.0495156
0.0495395
0.0495688
0.0496069
0.0496567
0.0497189
0.0497893
0.0498594
0.049919
0.0499612
0.0499854
0.049996
0.0499993
0.0499999
0.05
0.05
0.05
0.05
0.05
0.05
0.05
0.05
0.05
0.05
0.05
0.05
0.05
0.05
0.05
0.05
0.05
0.05
0.05
0.05
0.05
0.05
0.05
0.05
0.05
0.05
1.96576e-30
1.98847e-30
2.0897e-30
2.35543e-30
2.91063e-30
3.94727e-30
5.80039e-30
9.12892e-30
1.53444e-29
2.76363e-29
5.34579e-29
1.10749e-28
2.43907e-28
5.65077e-28
1.36126e-27
3.37127e-27
8.49664e-27
2.16062e-26
5.50534e-26
1.39816e-25
3.52559e-25
8.80543e-25
2.176e-24
5.32254e-24
1.29089e-23
3.11284e-23
7.48586e-23
1.80001e-22
4.33241e-22
1.04201e-21
2.49505e-21
5.9167e-21
1.38167e-20
3.16062e-20
7.05158e-20
1.52912e-19
3.21391e-19
6.53286e-19
1.28201e-18
2.42483e-18
4.41528e-18
7.73405e-18
1.3028e-17
2.11048e-17
3.28952e-17
4.93804e-17
7.14911e-17
9.99742e-17
1.35253e-16
1.77361e-16
2.25945e-16
2.79805e-16
3.34941e-16
3.81228e-16
4.05461e-16
4.09178e-16
4.04984e-16
3.91364e-16
3.67005e-16
3.351e-16
3.0062e-16
2.67853e-16
2.3935e-16
2.15949e-16
1.9737e-16
1.82864e-16
1.71647e-16
1.63078e-16
1.5669e-16
1.52172e-16
1.49315e-16
1.47952e-16
1.47843e-16
1.4913e-16
1.52295e-16
1.57107e-16
1.63715e-16
1.72607e-16
1.84436e-16
2.00199e-16
2.21444e-16
2.50341e-16
2.89459e-16
3.42822e-16
4.16431e-16
5.199e-16
6.69862e-16
8.95154e-16
1.24486e-15
1.80764e-15
2.75141e-15
4.41121e-15
7.48818e-15
1.35125e-14
2.59896e-14
5.34495e-14
1.17952e-13
2.80634e-13
7.25262e-13
2.0533e-12
6.408e-12
2.22477e-11
8.73202e-11
3.91584e-10
2.03455e-09
1.26038e-08
9.63668e-08
9.38554e-07
1.24803e-05
0.000258711
0.00708219
0.0379881
0.0488009
0.0492159
0.0492404
0.0492649
0.0492902
0.049315
0.0493395
0.0493635
0.0493872
0.0494103
0.0494327
0.0494541
0.0494748
0.0494952
0.0495164
0.0495402
0.0495696
0.0496077
0.0496576
0.0497197
0.0497902
0.0498601
0.0499194
0.0499614
0.0499855
0.0499961
0.0499993
0.0499999
0.05
0.05
0.05
0.05
0.05
0.05
0.05
0.05
0.05
0.05
0.05
0.05
0.05
0.05
0.05
0.05
0.05
0.05
0.05
0.05
0.05
0.05
0.05
0.05
0.05
0.05
2.42552e-30
2.45375e-30
2.58048e-30
2.91063e-30
3.59707e-30
4.87755e-30
7.16842e-30
1.12809e-29
1.89303e-29
3.39469e-29
6.52124e-29
1.33973e-28
2.92419e-28
6.71402e-28
1.60328e-27
3.93718e-27
9.84198e-27
2.48291e-26
6.27779e-26
1.58237e-25
3.96098e-25
9.82304e-25
2.41111e-24
5.86026e-24
1.41295e-23
3.38904e-23
8.11361e-23
1.94454e-22
4.6707e-22
1.12238e-21
2.68751e-21
6.37736e-21
1.4909e-20
3.41523e-20
7.6311e-20
1.65739e-19
3.48936e-19
7.10569e-19
1.39713e-18
2.64848e-18
4.83569e-18
8.49854e-18
1.43715e-17
2.33833e-17
3.66189e-17
5.52388e-17
8.03573e-17
1.12878e-16
1.53321e-16
2.0177e-16
2.57879e-16
3.20234e-16
3.83762e-16
4.36029e-16
4.62119e-16
4.65184e-16
4.59702e-16
4.42597e-16
4.12915e-16
3.74815e-16
3.34205e-16
2.95996e-16
2.62965e-16
2.35914e-16
2.14421e-16
1.97587e-16
1.84489e-16
1.74375e-16
1.66697e-16
1.61082e-16
1.57284e-16
1.5515e-16
1.54421e-16
1.55058e-16
1.57626e-16
1.62224e-16
1.68837e-16
1.77894e-16
1.90079e-16
2.06378e-16
2.2832e-16
2.58238e-16
2.99129e-16
3.55467e-16
4.34031e-16
5.44649e-16
7.04514e-16
9.43902e-16
1.31583e-15
1.91595e-15
2.92523e-15
4.70528e-15
8.01526e-15
1.45199e-14
2.80367e-14
5.78704e-14
1.28141e-13
3.05869e-13
7.92074e-13
2.24539e-12
7.02301e-12
2.44258e-11
9.59197e-11
4.3131e-10
2.25135e-09
1.39644e-08
1.06786e-07
1.05232e-06
1.41896e-05
0.000296014
0.00797944
0.0388625
0.0488733
0.0492172
0.0492416
0.0492662
0.0492915
0.0493163
0.0493407
0.0493647
0.0493884
0.0494114
0.0494338
0.0494552
0.0494759
0.0494963
0.0495174
0.0495413
0.0495707
0.0496089
0.0496588
0.049721
0.0497913
0.049861
0.04992
0.0499618
0.0499857
0.0499961
0.0499993
0.0499999
0.05
0.05
0.05
0.05
0.05
0.05
0.05
0.05
0.05
0.05
0.05
0.05
0.05
0.05
0.05
0.05
0.05
0.05
0.05
0.05
0.05
0.05
0.05
0.05
0.05
0.05
3.28664e-30
3.32312e-30
3.49606e-30
3.94727e-30
4.87755e-30
6.60211e-30
9.68049e-30
1.5202e-29
2.54451e-29
4.54341e-29
8.6695e-29
1.7654e-28
3.81444e-28
8.66502e-28
2.04715e-27
4.97497e-27
1.23114e-26
3.07595e-26
7.70553e-26
1.92517e-25
4.7789e-25
1.17585e-24
2.86523e-24
6.91804e-24
1.65828e-23
3.95813e-23
9.43988e-23
2.25591e-22
5.40738e-22
1.29787e-21
3.10654e-21
7.37365e-21
1.72501e-20
3.95539e-20
8.84824e-20
1.92426e-19
4.05725e-19
8.27613e-19
1.63056e-18
3.09913e-18
5.67771e-18
1.00199e-17
1.70264e-17
2.78519e-17
4.38639e-17
6.65444e-17
9.73283e-17
1.37382e-16
1.87389e-16
2.47506e-16
3.17338e-16
3.94804e-16
4.72378e-16
5.33564e-16
5.61527e-16
5.62911e-16
5.54686e-16
5.31015e-16
4.91942e-16
4.43205e-16
3.92206e-16
3.44859e-16
3.04287e-16
2.71201e-16
2.44934e-16
2.24323e-16
2.08213e-16
1.95671e-16
1.86017e-16
1.78779e-16
1.73661e-16
1.7047e-16
1.69011e-16
1.69092e-16
1.71089e-16
1.75564e-16
1.82311e-16
1.91648e-16
2.04346e-16
2.21504e-16
2.44727e-16
2.76473e-16
3.20236e-16
3.81183e-16
4.67178e-16
5.89702e-16
7.68095e-16
1.03559e-15
1.45117e-15
2.12197e-15
3.25089e-15
5.24263e-15
8.94582e-15
1.62215e-14
3.13265e-14
6.45927e-14
1.4282e-13
3.40613e-13
8.81766e-13
2.49835e-12
7.81823e-12
2.72468e-11
1.07098e-10
4.81761e-10
2.52433e-09
1.57111e-08
1.20212e-07
1.19231e-06
1.63741e-05
0.000346934
0.00911753
0.0398358
0.0489444
0.049219
0.0492433
0.0492679
0.0492931
0.0493179
0.0493423
0.0493663
0.0493899
0.049413
0.0494353
0.0494567
0.0494773
0.0494976
0.0495188
0.0495427
0.0495722
0.0496104
0.0496604
0.0497225
0.0497927
0.0498622
0.0499209
0.0499623
0.0499859
0.0499962
0.0499994
0.0499999
0.05
0.05
0.05
0.05
0.05
0.05
0.05
0.05
0.05
0.05
0.05
0.05
0.05
0.05
0.05
0.05
0.05
0.05
0.05
0.05
0.05
0.05
0.05
0.05
0.05
0.05
4.84451e-30
4.88924e-30
5.13576e-30
5.80039e-30
7.16842e-30
9.68049e-30
1.41286e-29
2.20644e-29
3.6716e-29
6.51327e-29
1.23316e-28
2.48792e-28
5.31966e-28
1.19508e-27
2.79175e-27
6.70947e-27
1.64262e-26
4.0622e-26
1.00784e-25
2.49537e-25
6.1426e-25
1.49977e-24
3.62891e-24
8.70696e-24
2.07567e-23
4.93167e-23
1.1718e-22
2.7919e-22
6.67573e-22
1.59929e-21
3.8231e-21
9.06789e-21
2.12082e-20
4.8638e-20
1.08864e-19
2.36986e-19
5.00409e-19
1.02281e-18
2.02047e-18
3.85311e-18
7.08749e-18
1.25658e-17
2.14611e-17
3.52948e-17
5.58875e-17
8.52274e-17
1.25242e-16
1.7749e-16
2.42876e-16
3.21625e-16
4.13188e-16
5.14301e-16
6.13369e-16
6.8757e-16
7.18453e-16
7.17846e-16
7.04539e-16
6.70593e-16
6.1716e-16
5.52044e-16
4.84953e-16
4.23372e-16
3.71e-16
3.28464e-16
2.94743e-16
2.68263e-16
2.47513e-16
2.31276e-16
2.18666e-16
2.09068e-16
2.02093e-16
1.97488e-16
1.95085e-16
1.9456e-16
1.96051e-16
2.00412e-16
2.07486e-16
2.17435e-16
2.31135e-16
2.49883e-16
2.75481e-16
3.10612e-16
3.59254e-16
4.27299e-16
5.23763e-16
6.62304e-16
8.65483e-16
1.17138e-15
1.64714e-15
2.41508e-15
3.70724e-15
5.98575e-15
1.02165e-14
1.85143e-14
3.57133e-14
7.35355e-14
1.62372e-13
3.86911e-13
1.00166e-12
2.83819e-12
8.88111e-12
3.0973e-11
1.21921e-10
5.48683e-10
2.87839e-09
1.80222e-08
1.38828e-07
1.38387e-06
1.92941e-05
0.000419913
0.0106506
0.0409102
0.0490113
0.0492211
0.0492452
0.0492699
0.0492951
0.0493199
0.0493442
0.0493682
0.0493917
0.0494147
0.049437
0.0494584
0.049479
0.0494993
0.0495205
0.0495444
0.0495739
0.0496122
0.0496622
0.0497244
0.0497944
0.0498636
0.0499219
0.0499629
0.0499862
0.0499963
0.0499994
0.0499999
0.05
0.05
0.05
0.05
0.05
0.05
0.05
0.05
0.05
0.05
0.05
0.05
0.05
0.05
0.05
0.05
0.05
0.05
0.05
0.05
0.05
0.05
0.05
0.05
0.05
0.05
7.69804e-30
7.74312e-30
8.09697e-30
9.12892e-30
1.12809e-29
1.5202e-29
2.20644e-29
3.41852e-29
5.6375e-29
9.90576e-29
1.85652e-28
3.70491e-28
7.83032e-28
1.73805e-27
4.01115e-27
9.52594e-27
2.30563e-26
5.64059e-26
1.38543e-25
3.39858e-25
8.29508e-25
2.00966e-24
4.82851e-24
1.15116e-23
2.7286e-23
6.45008e-23
1.52574e-22
3.62095e-22
8.62871e-22
2.06129e-21
4.91652e-21
1.1643e-20
2.72063e-20
6.23796e-20
1.39686e-19
3.04439e-19
6.44068e-19
1.31989e-18
2.61589e-18
5.00763e-18
9.25005e-18
1.64736e-17
2.82659e-17
4.67009e-17
7.4277e-17
1.13728e-16
1.67691e-16
2.38257e-16
3.266e-16
4.32969e-16
5.56517e-16
6.92211e-16
8.22516e-16
9.1538e-16
9.50797e-16
9.47942e-16
9.26848e-16
8.78152e-16
8.03966e-16
7.15025e-16
6.2435e-16
5.417e-16
4.71708e-16
4.14998e-16
3.70077e-16
3.34788e-16
3.07087e-16
2.85338e-16
2.6835e-16
2.55291e-16
2.45624e-16
2.3899e-16
2.35162e-16
2.33742e-16
2.34641e-16
2.38723e-16
2.46234e-16
2.57178e-16
2.7252e-16
2.93819e-16
3.23197e-16
3.63696e-16
4.19819e-16
4.98223e-16
6.09159e-16
7.6864e-16
1.00306e-15
1.35687e-15
1.90792e-15
2.7979e-15
4.29583e-15
6.93761e-15
1.18416e-14
2.14533e-14
4.13686e-14
8.51605e-14
1.87999e-13
4.47809e-13
1.15896e-12
3.2826e-12
1.0263e-11
3.5749e-11
1.40677e-10
6.34372e-10
3.32909e-09
2.0917e-08
1.62788e-07
1.64348e-06
2.31654e-05
0.0005187
0.0126118
0.0420513
0.049069
0.0492234
0.0492474
0.0492722
0.0492973
0.0493221
0.0493464
0.0493703
0.0493938
0.0494168
0.049439
0.0494603
0.0494809
0.0495012
0.0495223
0.0495463
0.0495759
0.0496143
0.0496644
0.0497265
0.0497964
0.0498652
0.0499231
0.0499636
0.0499865
0.0499964
0.0499994
0.0499999
0.05
0.05
0.05
0.05
0.05
0.05
0.05
0.05
0.05
0.05
0.05
0.05
0.05
0.05
0.05
0.05
0.05
0.05
0.05
0.05
0.05
0.05
0.05
0.05
0.05
0.05
1.31295e-29
1.31539e-29
1.3667e-29
1.53444e-29
1.89303e-29
2.54451e-29
3.6716e-29
5.6375e-29
9.19508e-29
1.59625e-28
2.95354e-28
5.81566e-28
1.21227e-27
2.65339e-27
6.03918e-27
1.41501e-26
3.3811e-26
8.17256e-26
1.98501e-25
4.81966e-25
1.16536e-24
2.79919e-24
6.67292e-24
1.57947e-23
3.7191e-23
8.73789e-23
2.05535e-22
4.85315e-22
1.15137e-21
2.74019e-21
6.51659e-21
1.54005e-20
3.59454e-20
8.23997e-20
1.84644e-19
4.03045e-19
8.54652e-19
1.75665e-18
3.49355e-18
6.71304e-18
1.24491e-17
2.22586e-17
3.83384e-17
6.35708e-17
1.01436e-16
1.55734e-16
2.30086e-16
3.27284e-16
4.48786e-16
5.94783e-16
7.6393e-16
9.48663e-16
1.12308e-15
1.24219e-15
1.28395e-15
1.27802e-15
1.24603e-15
1.17646e-15
1.07284e-15
9.50098e-16
8.2578e-16
7.12809e-16
6.17261e-16
5.39885e-16
4.78587e-16
4.30396e-16
3.92505e-16
3.62676e-16
3.39277e-16
3.2115e-16
3.0753e-16
2.97879e-16
2.91815e-16
2.88987e-16
2.8904e-16
2.92475e-16
3.00382e-16
3.12614e-16
3.30165e-16
3.54923e-16
3.89461e-16
4.37336e-16
5.03729e-16
5.96272e-16
7.26761e-16
9.13965e-16
1.18888e-15
1.60391e-15
2.25068e-15
3.29585e-15
5.05599e-15
8.1624e-15
1.39324e-14
2.52434e-14
4.86773e-14
1.00185e-13
2.21058e-13
5.26041e-13
1.35959e-12
3.84552e-12
1.20029e-11
4.17645e-11
1.64307e-10
7.41277e-10
3.90906e-09
2.47149e-08
1.93741e-07
1.99299e-06
2.87639e-05
0.000659121
0.0149996
0.0432215
0.0491158
0.049226
0.0492498
0.0492747
0.0492998
0.0493245
0.0493487
0.0493726
0.0493961
0.049419
0.0494412
0.0494625
0.049483
0.0495032
0.0495244
0.0495484
0.0495781
0.0496166
0.0496669
0.049729
0.0497987
0.0498671
0.0499244
0.0499644
0.0499869
0.0499966
0.0499994
0.05
0.05
0.05
0.05
0.05
0.05
0.05
0.05
0.05
0.05
0.05
0.05
0.05
0.05
0.05
0.05
0.05
0.05
0.05
0.05
0.05
0.05
0.05
0.05
0.05
0.05
0.05
2.39929e-29
2.39665e-29
2.47628e-29
2.76363e-29
3.39469e-29
4.54341e-29
6.51327e-29
9.90576e-29
1.59625e-28
2.73265e-28
4.97967e-28
9.64855e-28
1.97819e-27
4.25834e-27
9.53466e-27
2.19903e-26
5.17637e-26
1.23379e-25
2.95809e-25
7.09695e-25
1.69725e-24
4.03593e-24
9.53238e-24
2.23711e-23
5.22605e-23
1.21886e-22
2.84771e-22
6.68311e-22
1.57705e-21
3.73653e-21
8.85524e-21
2.08774e-20
4.8666e-20
1.11537e-19
2.50132e-19
5.4689e-19
1.16239e-18
2.39599e-18
4.78022e-18
9.21602e-18
1.71475e-17
3.07562e-17
5.31279e-17
8.8316e-17
1.4121e-16
2.17118e-16
3.2102e-16
4.56604e-16
6.25599e-16
8.27986e-16
1.06162e-15
1.31529e-15
1.55132e-15
1.70662e-15
1.75674e-15
1.74636e-15
1.69883e-15
1.5995e-15
1.45419e-15
1.28368e-15
1.11173e-15
9.55606e-16
8.23502e-16
7.16445e-16
6.31557e-16
5.64743e-16
5.12125e-16
4.70608e-16
4.37924e-16
4.12443e-16
3.93057e-16
3.78952e-16
3.69555e-16
3.64485e-16
3.63158e-16
3.65698e-16
3.73744e-16
3.87484e-16
4.07784e-16
4.36892e-16
4.77993e-16
5.35356e-16
6.15104e-16
7.26239e-16
8.82709e-16
1.10688e-15
1.43571e-15
1.93177e-15
2.70452e-15
3.95303e-15
6.05559e-15
9.76723e-15
1.66629e-14
3.01749e-14
5.81361e-14
1.19493e-13
2.6323e-13
6.25114e-13
1.61196e-12
4.55218e-12
1.41882e-11
4.93564e-11
1.94567e-10
8.79822e-10
4.65892e-09
2.97672e-08
2.36846e-07
2.47093e-06
3.66973e-05
0.000867888
0.0178772
0.0443998
0.0491519
0.0492287
0.0492525
0.0492774
0.0493025
0.0493271
0.0493513
0.0493752
0.0493986
0.0494214
0.0494436
0.0494648
0.0494853
0.0495055
0.0495266
0.0495507
0.0495805
0.0496192
0.0496695
0.0497317
0.0498012
0.0498692
0.0499259
0.0499653
0.0499873
0.0499967
0.0499995
0.05
0.05
0.05
0.05
0.05
0.05
0.05
0.05
0.05
0.05
0.05
0.05
0.05
0.05
0.05
0.05
0.05
0.05
0.05
0.05
0.05
0.05
0.05
0.05
0.05
0.05
0.05
4.69475e-29
4.68239e-29
4.82097e-29
5.34579e-29
6.52124e-29
8.6695e-29
1.23316e-28
1.85652e-28
2.95354e-28
4.97967e-28
8.91978e-28
1.69657e-27
3.41208e-27
7.20374e-27
1.58243e-26
3.58304e-26
8.28832e-26
1.94352e-25
4.58958e-25
1.0858e-24
2.56337e-24
6.0233e-24
1.40708e-23
3.26891e-23
7.56534e-23
1.74931e-22
4.05504e-22
9.44962e-22
2.21623e-21
5.22415e-21
1.23313e-20
2.89908e-20
6.74683e-20
1.54552e-19
3.46769e-19
7.5918e-19
1.61674e-18
3.34039e-18
6.68151e-18
1.29152e-17
2.40903e-17
4.33063e-17
7.49491e-17
1.24772e-16
1.99691e-16
3.0715e-16
4.54e-16
6.45076e-16
8.82312e-16
1.1652e-15
1.4903e-15
1.8411e-15
2.16319e-15
2.36812e-15
2.42895e-15
2.41197e-15
2.34182e-15
2.19962e-15
1.99477e-15
1.7564e-15
1.51682e-15
1.29932e-15
1.11509e-15
9.65593e-16
8.46882e-16
7.53314e-16
6.79516e-16
6.21176e-16
5.7512e-16
5.39027e-16
5.11288e-16
4.90699e-16
4.76428e-16
4.67913e-16
4.64481e-16
4.65857e-16
4.73715e-16
4.89194e-16
5.12963e-16
5.47608e-16
5.97109e-16
6.66709e-16
7.63844e-16
8.99423e-16
1.09042e-15
1.36406e-15
1.76528e-15
2.37009e-15
3.31134e-15
4.83063e-15
7.38712e-15
1.1897e-14
2.0268e-14
3.66424e-14
7.04461e-14
1.44436e-13
3.17373e-13
7.51792e-13
1.93426e-12
5.45713e-12
1.70058e-11
5.9256e-11
2.34398e-10
1.06463e-09
5.69291e-09
3.67713e-08
2.96465e-07
3.18127e-06
4.85171e-05
0.00118327
0.0212379
0.0455347
0.0491779
0.0492316
0.0492553
0.0492804
0.0493054
0.0493299
0.0493541
0.0493779
0.0494013
0.0494241
0.0494461
0.0494673
0.0494877
0.0495079
0.0495291
0.0495532
0.0495831
0.0496219
0.0496725
0.0497347
0.049804
0.0498715
0.0499275
0.0499662
0.0499877
0.0499968
0.0499995
0.05
0.05
0.05
0.05
0.05
0.05
0.05
0.05
0.05
0.05
0.05
0.05
0.05
0.05
0.05
0.05
0.05
0.05
0.05
0.05
0.05
0.05
0.05
0.05
0.05
0.05
0.05
9.81517e-29
9.78094e-29
1.00476e-28
1.10749e-28
1.33973e-28
1.7654e-28
2.48792e-28
3.70491e-28
5.81566e-28
9.64855e-28
1.69657e-27
3.16199e-27
6.22438e-27
1.28572e-26
2.76382e-26
6.1282e-26
1.38959e-25
3.19801e-25
7.42157e-25
1.72767e-24
4.01831e-24
9.31279e-24
2.14802e-23
4.93209e-23
1.12922e-22
2.58543e-22
5.93993e-22
1.37323e-21
3.19845e-21
7.49589e-21
1.76118e-20
4.12635e-20
9.58138e-20
2.19234e-19
4.91818e-19
1.07742e-18
2.29726e-18
4.75398e-18
9.52564e-18
1.84445e-17
3.44574e-17
6.20211e-17
1.07433e-16
1.78927e-16
2.86342e-16
4.40156e-16
6.49801e-16
9.21581e-16
1.25748e-15
1.65603e-15
2.11166e-15
2.60008e-15
3.04303e-15
3.31635e-15
3.39079e-15
3.36396e-15
3.2606e-15
3.05623e-15
2.76575e-15
2.43031e-15
2.09416e-15
1.78902e-15
1.53027e-15
1.31994e-15
1.15263e-15
1.02056e-15
9.16239e-16
8.33647e-16
7.68301e-16
7.16876e-16
6.7704e-16
6.47038e-16
6.25655e-16
6.11991e-16
6.05433e-16
6.0522e-16
6.12499e-16
6.3006e-16
6.5841e-16
7.00423e-16
7.61098e-16
8.47024e-16
9.67427e-16
1.13584e-15
1.37338e-15
1.71388e-15
2.21308e-15
2.96503e-15
4.13388e-15
6.01814e-15
9.18474e-15
1.4763e-14
2.50966e-14
4.52539e-14
8.67453e-14
1.77329e-13
3.88586e-13
9.18437e-13
2.36012e-12
6.65897e-12
2.0775e-11
7.26486e-11
2.88973e-10
1.32174e-09
7.13434e-09
4.68165e-08
3.84088e-07
4.19712e-06
6.66545e-05
0.0016659
0.0248468
0.0465531
0.0491956
0.0492346
0.0492584
0.0492835
0.0493085
0.0493329
0.049357
0.0493808
0.0494041
0.0494269
0.0494488
0.04947
0.0494903
0.0495105
0.0495317
0.0495559
0.0495859
0.0496249
0.0496756
0.0497378
0.0498069
0.0498738
0.0499292
0.0499672
0.0499882
0.049997
0.0499995
0.05
0.05
0.05
0.05
0.05
0.05
0.05
0.05
0.05
0.05
0.05
0.05
0.05
0.05
0.05
0.05
0.05
0.05
0.05
0.05
0.05
0.05
0.05
0.05
0.05
0.05
0.05
2.17821e-28
2.16943e-28
2.22492e-28
2.43907e-28
2.92419e-28
3.81444e-28
5.31966e-28
7.83032e-28
1.21227e-27
1.97819e-27
3.41208e-27
6.22438e-27
1.1975e-26
2.41578e-26
5.07152e-26
1.0988e-25
2.43699e-25
5.49248e-25
1.24997e-24
2.8575e-24
6.53548e-24
1.49134e-23
3.3909e-23
7.6839e-23
1.73809e-22
3.93578e-22
8.95239e-22
2.05132e-21
4.74092e-21
1.1038e-20
2.57944e-20
6.01809e-20
1.39311e-19
3.18121e-19
7.12895e-19
1.56128e-18
3.32995e-18
6.89565e-18
1.38281e-17
2.67957e-17
5.00865e-17
9.01748e-17
1.56181e-16
2.59967e-16
4.15601e-16
6.37876e-16
9.3979e-16
1.32951e-15
1.80876e-15
2.37433e-15
3.01719e-15
3.70161e-15
4.31535e-15
4.68372e-15
4.77564e-15
4.73409e-15
4.58198e-15
4.28722e-15
3.8732e-15
3.39824e-15
2.92355e-15
2.49272e-15
2.12696e-15
1.82909e-15
1.59165e-15
1.4039e-15
1.25541e-15
1.13769e-15
1.04437e-15
9.70687e-16
9.13243e-16
8.69508e-16
8.37699e-16
8.16469e-16
8.0511e-16
8.02383e-16
8.08966e-16
8.28961e-16
8.63549e-16
9.1575e-16
9.91869e-16
1.10035e-15
1.25287e-15
1.46658e-15
1.76829e-15
2.20081e-15
2.83463e-15
3.7886e-15
5.26965e-15
7.65413e-15
1.16558e-14
1.8693e-14
3.16974e-14
5.69901e-14
1.08911e-13
2.22014e-13
4.85324e-13
1.14542e-12
2.94276e-12
8.30817e-12
2.59864e-11
9.13398e-11
3.65204e-10
1.68534e-09
9.22812e-09
6.12329e-08
5.12072e-07
5.79e-06
9.47678e-05
0.00242534
0.0286189
0.0474035
0.0492068
0.0492377
0.0492616
0.0492868
0.0493117
0.0493361
0.0493602
0.0493838
0.0494071
0.0494298
0.0494517
0.0494728
0.0494931
0.0495132
0.0495344
0.0495587
0.0495888
0.049628
0.0496789
0.0497411
0.04981
0.0498764
0.0499309
0.0499682
0.0499886
0.0499971
0.0499995
0.05
0.05
0.05
0.05
0.05
0.05
0.05
0.05
0.05
0.05
0.05
0.05
0.05
0.05
0.05
0.05
0.05
0.05
0.05
0.05
0.05
0.05
0.05
0.05
0.05
0.05
0.05
5.08111e-28
5.05855e-28
5.18088e-28
5.65077e-28
6.71402e-28
8.66502e-28
1.19508e-27
1.73805e-27
2.65339e-27
4.25834e-27
7.20374e-27
1.28572e-26
2.41578e-26
4.75463e-26
9.73502e-26
2.05779e-25
4.4563e-25
9.81829e-25
2.18731e-24
4.90201e-24
1.10072e-23
2.46941e-23
5.52744e-23
1.23459e-22
2.75588e-22
6.16534e-22
1.38704e-21
3.14709e-21
7.21072e-21
1.66636e-20
3.86976e-20
8.98249e-20
2.07098e-19
4.71494e-19
1.05437e-18
2.30602e-18
4.91462e-18
1.01734e-17
2.03967e-17
3.95137e-17
7.38247e-17
1.3281e-16
2.29762e-16
3.81862e-16
6.09293e-16
9.32972e-16
1.37081e-15
1.9333e-15
2.62136e-15
3.42873e-15
4.34091e-15
5.30546e-15
6.16162e-15
6.66307e-15
6.77774e-15
6.71434e-15
6.49079e-15
6.06485e-15
5.47261e-15
4.79697e-15
4.12314e-15
3.51152e-15
2.99158e-15
2.56722e-15
2.22818e-15
1.95961e-15
1.74689e-15
1.57804e-15
1.44399e-15
1.33778e-15
1.25456e-15
1.19067e-15
1.14347e-15
1.11099e-15
1.09227e-15
1.08561e-15
1.0912e-15
1.11419e-15
1.1574e-15
1.22405e-15
1.3221e-15
1.46256e-15
1.66056e-15
1.93828e-15
2.3305e-15
2.8924e-15
3.71521e-15
4.95244e-15
6.87088e-15
9.95571e-15
1.51254e-14
2.4201e-14
4.09353e-14
7.34023e-14
1.39903e-13
2.84476e-13
6.20647e-13
1.46343e-12
3.75993e-12
1.06298e-11
3.33562e-11
1.17821e-10
4.74349e-10
2.21204e-09
1.22438e-08
8.26122e-08
7.08234e-07
8.18542e-06
0.000140404
0.00361075
0.0323258
0.0480927
0.049214
0.049241
0.049265
0.0492902
0.049315
0.0493394
0.0493634
0.049387
0.0494102
0.0494329
0.0494547
0.0494757
0.0494959
0.049516
0.0495373
0.0495616
0.0495919
0.0496313
0.0496824
0.0497447
0.0498132
0.049879
0.0499328
0.0499693
0.0499891
0.0499973
0.0499996
0.05
0.05
0.05
0.05
0.05
0.05
0.05
0.05
0.05
0.05
0.05
0.05
0.05
0.05
0.05
0.05
0.05
0.05
0.05
0.05
0.05
0.05
0.05
0.05
0.05
0.05
0.05
1.23198e-27
1.22606e-27
1.2541e-27
1.36126e-27
1.60328e-27
2.04715e-27
2.79175e-27
4.01115e-27
6.03918e-27
9.53466e-27
1.58243e-26
2.76382e-26
5.07152e-26
9.73502e-26
1.94279e-25
4.00299e-25
8.45495e-25
1.81872e-24
3.96094e-24
8.6907e-24
1.9134e-23
4.21521e-23
9.27802e-23
2.04051e-22
4.49051e-22
9.91565e-22
2.20434e-21
4.94793e-21
1.12289e-20
2.57331e-20
5.93306e-20
1.36885e-19
3.14018e-19
7.12033e-19
1.58721e-18
3.46291e-18
7.36651e-18
1.52266e-17
3.04893e-17
5.89902e-17
1.10052e-16
1.97636e-16
3.41206e-16
5.65713e-16
9.00168e-16
1.37416e-15
2.01235e-15
2.82805e-15
3.82036e-15
4.97795e-15
6.27786e-15
7.64325e-15
8.84435e-15
9.53306e-15
9.6776e-15
9.58191e-15
9.25418e-15
8.63864e-15
7.79013e-15
6.82636e-15
5.86641e-15
4.99452e-15
4.25196e-15
3.64436e-15
3.15774e-15
2.77154e-15
2.46522e-15
2.22176e-15
2.02813e-15
1.87428e-15
1.75319e-15
1.65959e-15
1.58954e-15
1.54023e-15
1.51025e-15
1.49748e-15
1.50151e-15
1.52825e-15
1.58362e-15
1.67111e-15
1.8009e-15
1.98757e-15
2.25117e-15
2.62115e-15
3.14351e-15
3.89118e-15
4.98509e-15
6.62815e-15
9.17276e-15
1.32592e-14
2.00974e-14
3.20858e-14
5.41516e-14
9.68816e-14
1.84228e-13
3.73759e-13
8.14125e-13
1.91798e-12
4.92975e-12
1.39584e-11
4.39293e-11
1.56117e-10
6.32961e-10
2.98055e-09
1.67411e-08
1.14904e-07
1.00644e-06
1.20415e-05
0.000216833
0.00547644
0.0358354
0.0485829
0.0492192
0.0492443
0.0492686
0.0492938
0.0493185
0.0493428
0.0493668
0.0493903
0.0494135
0.049436
0.0494578
0.0494787
0.0494989
0.049519
0.0495402
0.0495647
0.0495951
0.0496348
0.0496861
0.0497484
0.0498166
0.0498818
0.0499347
0.0499704
0.0499896
0.0499974
0.0499996
0.05
0.05
0.05
0.05
0.05
0.05
0.05
0.05
0.05
0.05
0.05
0.05
0.05
0.05
0.05
0.05
0.05
0.05
0.05
0.05
0.05
0.05
0.05
0.05
0.05
0.05
0.05
3.07067e-27
3.0547e-27
3.12043e-27
3.37127e-27
3.93718e-27
4.97497e-27
6.70947e-27
9.52594e-27
1.41501e-26
2.19903e-26
3.58304e-26
6.1282e-26
1.0988e-25
2.05779e-25
4.00299e-25
8.03782e-25
1.65505e-24
3.47348e-24
7.38926e-24
1.58585e-23
3.42032e-23
7.39238e-23
1.59863e-22
3.45896e-22
7.49837e-22
1.63293e-21
3.58419e-21
7.95224e-21
1.78589e-20
4.05484e-20
9.27296e-20
2.12437e-19
4.84411e-19
1.09283e-18
2.42572e-18
5.27365e-18
1.11853e-17
2.30611e-17
4.60701e-17
8.89321e-17
1.65511e-16
2.96443e-16
5.10288e-16
8.43327e-16
1.33726e-15
2.0339e-15
2.9671e-15
4.15351e-15
5.5887e-15
7.2531e-15
9.1107e-15
1.10495e-14
1.27417e-14
1.36945e-14
1.38785e-14
1.37355e-14
1.32568e-14
1.23689e-14
1.11537e-14
9.77767e-15
8.40741e-15
7.16091e-15
6.0967e-15
5.22335e-15
4.52216e-15
3.96467e-15
3.52184e-15
3.16943e-15
2.88862e-15
2.66484e-15
2.48806e-15
2.35061e-15
2.24659e-15
2.17207e-15
2.12493e-15
2.1027e-15
2.10428e-15
2.13591e-15
2.20868e-15
2.32665e-15
2.50305e-15
2.75744e-15
3.11713e-15
3.62215e-15
4.33472e-15
5.35381e-15
6.8436e-15
9.07856e-15
1.2536e-14
1.80811e-14
2.73475e-14
4.3576e-14
7.3399e-14
1.31055e-13
2.48649e-13
5.03384e-13
1.09486e-12
2.57747e-12
6.62925e-12
1.87921e-11
5.94092e-11
2.12245e-10
8.65355e-10
4.13167e-09
2.35244e-08
1.64122e-07
1.48064e-06
1.83687e-05
0.000347221
0.00842732
0.0391206
0.0488961
0.0492234
0.0492478
0.0492723
0.0492974
0.0493221
0.0493463
0.0493702
0.0493937
0.0494168
0.0494393
0.049461
0.0494819
0.049502
0.049522
0.0495433
0.0495679
0.0495985
0.0496384
0.0496899
0.0497522
0.0498201
0.0498846
0.0499367
0.0499715
0.0499901
0.0499976
0.0499996
0.05
0.05
0.05
0.05
0.05
0.05
0.05
0.05
0.05
0.05
0.05
0.05
0.05
0.05
0.05
0.05
0.05
0.05
0.05
0.05
0.05
0.05
0.05
0.05
0.05
0.05
0.05
7.78928e-27
7.7454e-27
7.90096e-27
8.49664e-27
9.84198e-27
1.23114e-26
1.64262e-26
2.30563e-26
3.3811e-26
5.17637e-26
8.28832e-26
1.38959e-25
2.43699e-25
4.4563e-25
8.45495e-25
1.65505e-24
3.32256e-24
6.80267e-24
1.41317e-23
2.96538e-23
6.26191e-23
1.32699e-22
2.8176e-22
5.99376e-22
1.27905e-21
2.74515e-21
5.94502e-21
1.30283e-20
2.89313e-20
6.50258e-20
1.47368e-19
3.34925e-19
7.58395e-19
1.70057e-18
3.75489e-18
8.12611e-18
1.71663e-17
3.5266e-17
7.02185e-17
1.35108e-16
2.50615e-16
4.47297e-16
7.67085e-16
1.2627e-15
1.99398e-15
3.01989e-15
4.38673e-15
6.1149e-15
8.19356e-15
1.05898e-14
1.3248e-14
1.60057e-14
1.83963e-14
1.97222e-14
1.99589e-14
1.97471e-14
1.90516e-14
1.77751e-14
1.60381e-14
1.40748e-14
1.21176e-14
1.03326e-14
8.80395e-15
7.54542e-15
6.53253e-15
5.72581e-15
5.08406e-15
4.57264e-15
4.1643e-15
3.83793e-15
3.57928e-15
3.37707e-15
3.22254e-15
3.11035e-15
3.03737e-15
3.00058e-15
2.99821e-15
3.03691e-15
3.13491e-15
3.29807e-15
3.54371e-15
3.89852e-15
4.40082e-15
5.10611e-15
6.10028e-15
7.52154e-15
9.59741e-15
1.27077e-14
1.7515e-14
2.5214e-14
3.80662e-14
6.05537e-14
1.01806e-13
1.81413e-13
3.43373e-13
6.93837e-13
1.50697e-12
3.54628e-12
9.12957e-12
2.59236e-11
8.23687e-11
2.95301e-10
1.21649e-09
5.87539e-09
3.3836e-08
2.42282e-07
2.25397e-06
2.88917e-05
0.000580056
0.012837
0.0420755
0.0490724
0.0492273
0.0492513
0.049276
0.0493011
0.0493257
0.0493499
0.0493738
0.0493972
0.0494202
0.0494427
0.0494643
0.0494851
0.0495052
0.0495252
0.0495465
0.0495712
0.049602
0.0496422
0.0496939
0.0497562
0.0498238
0.0498876
0.0499387
0.0499727
0.0499906
0.0499977
0.0499997
0.05
0.05
0.05
0.05
0.05