/*--------------------------------*- C++ -*----------------------------------*\
  =========                 |
  \\      /  F ield         | OpenFOAM: The Open Source CFD Toolbox
   \\    /   O peration     | Website:  https://openfoam.org
    \\  /    A nd           | Version:  13
     \\/     M anipulation  |
\*---------------------------------------------------------------------------*/
FoamFile
{
    format      ascii;
    class       volScalarField;
    location    "0.0018";
    object      CO2;
}
// * * * * * * * * * * * * * * * * * * * * * * * * * * * * * * * * * * * * * //

dimensions      [];

internalField   nonuniform List<scalar> 
33334
(
0.137164
0.137164
0.137164
0.137164
0.137164
0.137164
0.137164
0.137164
0.137164
0.137164
0.137164
0.137164
0.137164
0.137164
0.137164
0.137164
0.137164
0.137164
0.137164
0.137164
0.137164
0.137164
0.137164
0.137164
0.137164
0.137164
0.137164
0.137164
0.137164
0.137164
0.137164
0.137164
0.137164
0.137164
0.137164
0.137164
0.137164
0.137164
0.137164
0.137164
0.137164
0.137164
0.137164
0.137164
0.137164
0.137164
0.137164
0.137164
0.137164
0.137164
0.137164
0.137164
0.137164
0.137164
0.137164
0.137164
0.137164
0.137164
0.137164
0.137164
0.137164
0.137164
0.137164
0.137164
0.137164
0.137164
0.137164
0.137164
0.137164
0.137164
0.137164
0.137164
0.137164
0.137164
0.137164
0.137164
0.137164
0.137164
0.137164
0.137164
0.137164
0.137164
0.137164
0.137164
0.137164
0.137164
0.137164
0.137164
0.137164
0.137164
0.137164
0.137164
0.137164
0.137164
0.137164
0.137164
0.137164
0.137164
0.137164
0.137164
0.137164
0.137164
0.137164
0.137164
0.137164
0.137164
0.137164
0.137162
0.137134
0.136546
0.120127
0.0355446
0.0035285
0.00215564
0.0020873
0.00201994
0.00195031
0.00188188
0.00181471
0.0017486
0.00168364
0.00162018
0.00155873
0.0014997
0.0014429
0.00138698
0.00132885
0.0012633
0.0011828
0.00107813
0.000941229
0.000770591
0.000577236
0.000385078
0.000221955
0.000106353
4.00506e-05
1.08793e-05
1.87443e-06
1.70999e-07
6.56588e-09
8.24013e-11
6.39892e-13
3.8134e-13
3.80982e-13
3.80738e-13
3.79754e-13
3.76739e-13
3.70383e-13
3.60094e-13
3.46451e-13
3.31051e-13
3.15711e-13
3.01642e-13
2.89162e-13
2.77957e-13
2.67487e-13
2.57274e-13
2.47027e-13
2.36649e-13
2.26189e-13
2.15761e-13
2.0548e-13
1.95417e-13
1.8559e-13
1.75977e-13
0.137164
0.137164
0.137164
0.137164
0.137164
0.137164
0.137164
0.137164
0.137164
0.137164
0.137164
0.137164
0.137164
0.137164
0.137164
0.137164
0.137164
0.137164
0.137164
0.137164
0.137164
0.137164
0.137164
0.137164
0.137164
0.137164
0.137164
0.137164
0.137164
0.137164
0.137164
0.137164
0.137164
0.137164
0.137164
0.137164
0.137164
0.137164
0.137164
0.137164
0.137164
0.137164
0.137164
0.137164
0.137164
0.137164
0.137164
0.137164
0.137164
0.137164
0.137164
0.137164
0.137164
0.137164
0.137164
0.137164
0.137164
0.137164
0.137164
0.137164
0.137164
0.137164
0.137164
0.137164
0.137164
0.137164
0.137164
0.137164
0.137164
0.137164
0.137164
0.137164
0.137164
0.137164
0.137164
0.137164
0.137164
0.137164
0.137164
0.137164
0.137164
0.137164
0.137164
0.137164
0.137164
0.137164
0.137164
0.137164
0.137164
0.137164
0.137164
0.137164
0.137164
0.137164
0.137164
0.137164
0.137164
0.137164
0.137164
0.137164
0.137164
0.137164
0.137164
0.137164
0.137164
0.137164
0.137164
0.137162
0.137135
0.136565
0.120525
0.0360315
0.00358561
0.00215497
0.00208669
0.00201969
0.00195046
0.00188229
0.00181522
0.00174913
0.00168419
0.00162074
0.00155929
0.00150026
0.00144345
0.00138754
0.00132946
0.00126404
0.00118374
0.00107937
0.000942792
0.000772383
0.000579011
0.000386542
0.00022294
0.000106885
4.02717e-05
1.09436e-05
1.88567e-06
1.71946e-07
6.59552e-09
8.26277e-11
6.39314e-13
3.81173e-13
3.80851e-13
3.80631e-13
3.79684e-13
3.76709e-13
3.70376e-13
3.60094e-13
3.46453e-13
3.31053e-13
3.15713e-13
3.01643e-13
2.89163e-13
2.77957e-13
2.67486e-13
2.57273e-13
2.47026e-13
2.36648e-13
2.26188e-13
2.15761e-13
2.05479e-13
1.95416e-13
1.85589e-13
1.75977e-13
0.137164
0.137164
0.137164
0.137164
0.137164
0.137164
0.137164
0.137164
0.137164
0.137164
0.137164
0.137164
0.137164
0.137164
0.137164
0.137164
0.137164
0.137164
0.137164
0.137164
0.137164
0.137164
0.137164
0.137164
0.137164
0.137164
0.137164
0.137164
0.137164
0.137164
0.137164
0.137164
0.137164
0.137164
0.137164
0.137164
0.137164
0.137164
0.137164
0.137164
0.137164
0.137164
0.137164
0.137164
0.137164
0.137164
0.137164
0.137164
0.137164
0.137164
0.137164
0.137164
0.137164
0.137164
0.137164
0.137164
0.137164
0.137164
0.137164
0.137164
0.137164
0.137164
0.137164
0.137164
0.137164
0.137164
0.137164
0.137164
0.137164
0.137164
0.137164
0.137164
0.137164
0.137164
0.137164
0.137164
0.137164
0.137164
0.137164
0.137164
0.137164
0.137164
0.137164
0.137164
0.137164
0.137164
0.137164
0.137164
0.137164
0.137164
0.137164
0.137164
0.137164
0.137164
0.137164
0.137164
0.137164
0.137164
0.137164
0.137164
0.137164
0.137164
0.137164
0.137164
0.137164
0.137164
0.137164
0.137162
0.137133
0.136519
0.119424
0.0348252
0.00346268
0.00215347
0.00208572
0.00201877
0.00194955
0.00188136
0.00181427
0.00174821
0.00168329
0.00161987
0.00155846
0.00149946
0.00144269
0.0013868
0.00132872
0.00126326
0.00118289
0.00107844
0.000941758
0.000771274
0.000577929
0.000385641
0.000222331
0.000106559
4.01343e-05
1.08995e-05
1.87597e-06
1.70738e-07
6.53146e-09
8.15345e-11
6.3414e-13
3.8081e-13
3.80577e-13
3.80406e-13
3.79525e-13
3.7662e-13
3.70332e-13
3.60075e-13
3.46447e-13
3.3105e-13
3.1571e-13
3.01639e-13
2.89157e-13
2.77951e-13
2.6748e-13
2.57267e-13
2.4702e-13
2.36643e-13
2.26183e-13
2.15756e-13
2.05475e-13
1.95412e-13
1.85585e-13
1.75973e-13
0.137164
0.137164
0.137164
0.137164
0.137164
0.137164
0.137164
0.137164
0.137164
0.137164
0.137164
0.137164
0.137164
0.137164
0.137164
0.137164
0.137164
0.137164
0.137164
0.137164
0.137164
0.137164
0.137164
0.137164
0.137164
0.137164
0.137164
0.137164
0.137164
0.137164
0.137164
0.137164
0.137164
0.137164
0.137164
0.137164
0.137164
0.137164
0.137164
0.137164
0.137164
0.137164
0.137164
0.137164
0.137164
0.137164
0.137164
0.137164
0.137164
0.137164
0.137164
0.137164
0.137164
0.137164
0.137164
0.137164
0.137164
0.137164
0.137164
0.137164
0.137164
0.137164
0.137164
0.137164
0.137164
0.137164
0.137164
0.137164
0.137164
0.137164
0.137164
0.137164
0.137164
0.137164
0.137164
0.137164
0.137164
0.137164
0.137164
0.137164
0.137164
0.137164
0.137164
0.137164
0.137164
0.137164
0.137164
0.137164
0.137164
0.137164
0.137164
0.137164
0.137164
0.137164
0.137164
0.137164
0.137164
0.137164
0.137164
0.137164
0.137164
0.137164
0.137164
0.137164
0.137164
0.137164
0.137164
0.137162
0.13713
0.136455
0.117736
0.0329521
0.00328954
0.002151
0.00208367
0.0020165
0.00194723
0.00187905
0.001812
0.00174598
0.00168111
0.00161775
0.0015564
0.00149746
0.00144074
0.00138487
0.00132678
0.00126126
0.00118079
0.00107619
0.000939362
0.000768836
0.000575664
0.00038381
0.000221082
0.00010585
3.98086e-05
1.07869e-05
1.85055e-06
1.6769e-07
6.38114e-09
7.92213e-11
6.24835e-13
3.80238e-13
3.80152e-13
3.80066e-13
3.79278e-13
3.76464e-13
3.70243e-13
3.60026e-13
3.46424e-13
3.31041e-13
3.15703e-13
3.01631e-13
2.89148e-13
2.77941e-13
2.6747e-13
2.57257e-13
2.47011e-13
2.36635e-13
2.26175e-13
2.15749e-13
2.05468e-13
1.95405e-13
1.85579e-13
1.75967e-13
0.137164
0.137164
0.137164
0.137164
0.137164
0.137164
0.137164
0.137164
0.137164
0.137164
0.137164
0.137164
0.137164
0.137164
0.137164
0.137164
0.137164
0.137164
0.137164
0.137164
0.137164
0.137164
0.137164
0.137164
0.137164
0.137164
0.137164
0.137164
0.137164
0.137164
0.137164
0.137164
0.137164
0.137164
0.137164
0.137164
0.137164
0.137164
0.137164
0.137164
0.137164
0.137164
0.137164
0.137164
0.137164
0.137164
0.137164
0.137164
0.137164
0.137164
0.137164
0.137164
0.137164
0.137164
0.137164
0.137164
0.137164
0.137164
0.137164
0.137164
0.137164
0.137164
0.137164
0.137164
0.137164
0.137164
0.137164
0.137164
0.137164
0.137164
0.137164
0.137164
0.137164
0.137164
0.137164
0.137164
0.137164
0.137164
0.137164
0.137164
0.137164
0.137164
0.137164
0.137164
0.137164
0.137164
0.137164
0.137164
0.137164
0.137164
0.137164
0.137164
0.137164
0.137164
0.137164
0.137164
0.137164
0.137164
0.137164
0.137164
0.137164
0.137164
0.137164
0.137164
0.137164
0.137164
0.137164
0.137161
0.137125
0.136352
0.115274
0.0305534
0.00309085
0.00214732
0.0020804
0.002013
0.00194374
0.00187562
0.00180864
0.00174269
0.00167788
0.00161458
0.00155329
0.00149442
0.00143776
0.00138193
0.00132383
0.00125825
0.00117767
0.00107293
0.000935991
0.000765496
0.000572617
0.000381336
0.000219335
0.000104805
3.93061e-05
1.06103e-05
1.81143e-06
1.63203e-07
6.17186e-09
7.62024e-11
6.13338e-13
3.79462e-13
3.7952e-13
3.79573e-13
3.7893e-13
3.76238e-13
3.70102e-13
3.5994e-13
3.46379e-13
3.31022e-13
3.15695e-13
3.01625e-13
2.89142e-13
2.77934e-13
2.67462e-13
2.5725e-13
2.47004e-13
2.36628e-13
2.26169e-13
2.15743e-13
2.05463e-13
1.95401e-13
1.85575e-13
1.75963e-13
0.137164
0.137164
0.137164
0.137164
0.137164
0.137164
0.137164
0.137164
0.137164
0.137164
0.137164
0.137164
0.137164
0.137164
0.137164
0.137164
0.137164
0.137164
0.137164
0.137164
0.137164
0.137164
0.137164
0.137164
0.137164
0.137164
0.137164
0.137164
0.137164
0.137164
0.137164
0.137164
0.137164
0.137164
0.137164
0.137164
0.137164
0.137164
0.137164
0.137164
0.137164
0.137164
0.137164
0.137164
0.137164
0.137164
0.137164
0.137164
0.137164
0.137164
0.137164
0.137164
0.137164
0.137164
0.137164
0.137164
0.137164
0.137164
0.137164
0.137164
0.137164
0.137164
0.137164
0.137164
0.137164
0.137164
0.137164
0.137164
0.137164
0.137164
0.137164
0.137164
0.137164
0.137164
0.137164
0.137164
0.137164
0.137164
0.137164
0.137164
0.137164
0.137164
0.137164
0.137164
0.137164
0.137164
0.137164
0.137164
0.137164
0.137164
0.137164
0.137164
0.137164
0.137164
0.137164
0.137164
0.137164
0.137164
0.137164
0.137164
0.137164
0.137164
0.137164
0.137164
0.137164
0.137164
0.137164
0.137161
0.137119
0.136213
0.112152
0.0278834
0.00289589
0.00214244
0.00207596
0.00200836
0.00193916
0.00187114
0.00180425
0.00173838
0.00167366
0.00161044
0.00154925
0.00149046
0.00143388
0.0013781
0.00132001
0.00125438
0.00117368
0.00106878
0.000931712
0.000761266
0.000568745
0.000378156
0.000217053
0.000103423
3.86411e-05
1.03799e-05
1.76165e-06
1.5766e-07
5.92118e-09
7.26802e-11
6.00066e-13
3.78491e-13
3.78654e-13
3.78891e-13
3.78419e-13
3.75919e-13
3.699e-13
3.59805e-13
3.463e-13
3.30985e-13
3.15681e-13
3.0162e-13
2.8914e-13
2.77933e-13
2.6746e-13
2.57247e-13
2.47001e-13
2.36625e-13
2.26166e-13
2.15741e-13
2.05461e-13
1.95399e-13
1.85573e-13
1.75962e-13
0.137164
0.137164
0.137164
0.137164
0.137164
0.137164
0.137164
0.137164
0.137164
0.137164
0.137164
0.137164
0.137164
0.137164
0.137164
0.137164
0.137164
0.137164
0.137164
0.137164
0.137164
0.137164
0.137164
0.137164
0.137164
0.137164
0.137164
0.137164
0.137164
0.137164
0.137164
0.137164
0.137164
0.137164
0.137164
0.137164
0.137164
0.137164
0.137164
0.137164
0.137164
0.137164
0.137164
0.137164
0.137164
0.137164
0.137164
0.137164
0.137164
0.137164
0.137164
0.137164
0.137164
0.137164
0.137164
0.137164
0.137164
0.137164
0.137164
0.137164
0.137164
0.137164
0.137164
0.137164
0.137164
0.137164
0.137164
0.137164
0.137164
0.137164
0.137164
0.137164
0.137164
0.137164
0.137164
0.137164
0.137164
0.137164
0.137164
0.137164
0.137164
0.137164
0.137164
0.137164
0.137164
0.137164
0.137164
0.137164
0.137164
0.137164
0.137164
0.137164
0.137164
0.137164
0.137164
0.137164
0.137164
0.137164
0.137164
0.137164
0.137164
0.137164
0.137164
0.137164
0.137164
0.137164
0.137164
0.137161
0.137111
0.136012
0.107947
0.024936
0.00271217
0.0021367
0.00207066
0.00200284
0.00193373
0.00186583
0.00179904
0.00173327
0.00166865
0.00160554
0.00154445
0.00148578
0.00142929
0.00137358
0.00131551
0.00124981
0.00116895
0.00106383
0.000926576
0.000756147
0.000564021
0.000374249
0.000214243
0.00010173
3.78368e-05
1.01058e-05
1.70339e-06
1.51263e-07
5.63506e-09
6.86637e-11
5.84827e-13
3.77304e-13
3.77545e-13
3.77977e-13
3.77691e-13
3.75455e-13
3.69614e-13
3.59608e-13
3.46169e-13
3.30916e-13
3.15652e-13
3.01611e-13
2.89139e-13
2.77934e-13
2.67462e-13
2.57248e-13
2.47001e-13
2.36624e-13
2.26166e-13
2.1574e-13
2.05461e-13
1.95398e-13
1.85573e-13
1.75962e-13
0.137164
0.137164
0.137164
0.137164
0.137164
0.137164
0.137164
0.137164
0.137164
0.137164
0.137164
0.137164
0.137164
0.137164
0.137164
0.137164
0.137164
0.137164
0.137164
0.137164
0.137164
0.137164
0.137164
0.137164
0.137164
0.137164
0.137164
0.137164
0.137164
0.137164
0.137164
0.137164
0.137164
0.137164
0.137164
0.137164
0.137164
0.137164
0.137164
0.137164
0.137164
0.137164
0.137164
0.137164
0.137164
0.137164
0.137164
0.137164
0.137164
0.137164
0.137164
0.137164
0.137164
0.137164
0.137164
0.137164
0.137164
0.137164
0.137164
0.137164
0.137164
0.137164
0.137164
0.137164
0.137164
0.137164
0.137164
0.137164
0.137164
0.137164
0.137164
0.137164
0.137164
0.137164
0.137164
0.137164
0.137164
0.137164
0.137164
0.137164
0.137164
0.137164
0.137164
0.137164
0.137164
0.137164
0.137164
0.137164
0.137164
0.137164
0.137164
0.137164
0.137164
0.137164
0.137164
0.137164
0.137164
0.137164
0.137164
0.137164
0.137164
0.137164
0.137164
0.137164
0.137164
0.137164
0.137164
0.13716
0.137101
0.135741
0.102567
0.0218057
0.00255387
0.00213032
0.00206464
0.0019966
0.00192758
0.00185981
0.00179314
0.00172748
0.00166298
0.00159999
0.00153903
0.00148048
0.0014241
0.00136847
0.0013104
0.00124461
0.00116355
0.00105813
0.000920625
0.000750172
0.000558477
0.00036966
0.000210956
9.97684e-05
3.69166e-05
9.79609e-06
1.63828e-06
1.44162e-07
5.31866e-09
6.42048e-11
5.67785e-13
3.75872e-13
3.76181e-13
3.76802e-13
3.76701e-13
3.74786e-13
3.69199e-13
3.59327e-13
3.45968e-13
3.30793e-13
3.15591e-13
3.01585e-13
2.8913e-13
2.77934e-13
2.67464e-13
2.57251e-13
2.47003e-13
2.36625e-13
2.26166e-13
2.1574e-13
2.0546e-13
1.95398e-13
1.85573e-13
1.75962e-13
0.137164
0.137164
0.137164
0.137164
0.137164
0.137164
0.137164
0.137164
0.137164
0.137164
0.137164
0.137164
0.137164
0.137164
0.137164
0.137164
0.137164
0.137164
0.137164
0.137164
0.137164
0.137164
0.137164
0.137164
0.137164
0.137164
0.137164
0.137164
0.137164
0.137164
0.137164
0.137164
0.137164
0.137164
0.137164
0.137164
0.137164
0.137164
0.137164
0.137164
0.137164
0.137164
0.137164
0.137164
0.137164
0.137164
0.137164
0.137164
0.137164
0.137164
0.137164
0.137164
0.137164
0.137164
0.137164
0.137164
0.137164
0.137164
0.137164
0.137164
0.137164
0.137164
0.137164
0.137164
0.137164
0.137164
0.137164
0.137164
0.137164
0.137164
0.137164
0.137164
0.137164
0.137164
0.137164
0.137164
0.137164
0.137164
0.137164
0.137164
0.137164
0.137164
0.137164
0.137164
0.137164
0.137164
0.137164
0.137164
0.137164
0.137164
0.137164
0.137164
0.137164
0.137164
0.137164
0.137164
0.137164
0.137164
0.137164
0.137164
0.137164
0.137164
0.137164
0.137164
0.137164
0.137164
0.137164
0.137159
0.137085
0.135356
0.0960161
0.0185953
0.00242554
0.00212338
0.00205799
0.0019897
0.0019208
0.00185317
0.00178662
0.00172109
0.00165671
0.00159385
0.00153302
0.00147461
0.00141836
0.0013628
0.00130474
0.00123883
0.00115752
0.00105175
0.000913923
0.000743421
0.000552205
0.000364476
0.000207264
9.75826e-05
3.59006e-05
9.45746e-06
1.56768e-06
1.36513e-07
4.97891e-09
5.94135e-11
5.49384e-13
3.74183e-13
3.74555e-13
3.75354e-13
3.75432e-13
3.73853e-13
3.68596e-13
3.58924e-13
3.45679e-13
3.30599e-13
3.15479e-13
3.01528e-13
2.89105e-13
2.77926e-13
2.67465e-13
2.57254e-13
2.47006e-13
2.36628e-13
2.26167e-13
2.15741e-13
2.05461e-13
1.95398e-13
1.85573e-13
1.75962e-13
0.137164
0.137164
0.137164
0.137164
0.137164
0.137164
0.137164
0.137164
0.137164
0.137164
0.137164
0.137164
0.137164
0.137164
0.137164
0.137164
0.137164
0.137164
0.137164
0.137164
0.137164
0.137164
0.137164
0.137164
0.137164
0.137164
0.137164
0.137164
0.137164
0.137164
0.137164
0.137164
0.137164
0.137164
0.137164
0.137164
0.137164
0.137164
0.137164
0.137164
0.137164
0.137164
0.137164
0.137164
0.137164
0.137164
0.137164
0.137164
0.137164
0.137164
0.137164
0.137164
0.137164
0.137164
0.137164
0.137164
0.137164
0.137164
0.137164
0.137164
0.137164
0.137164
0.137164
0.137164
0.137164
0.137164
0.137164
0.137164
0.137164
0.137164
0.137164
0.137164
0.137164
0.137164
0.137164
0.137164
0.137164
0.137164
0.137164
0.137164
0.137164
0.137164
0.137164
0.137164
0.137164
0.137164
0.137164
0.137164
0.137164
0.137164
0.137164
0.137164
0.137164
0.137164
0.137164
0.137164
0.137164
0.137164
0.137164
0.137164
0.137164
0.137164
0.137164
0.137164
0.137164
0.137164
0.137164
0.137158
0.137064
0.134783
0.0881221
0.0153629
0.0023266
0.00211592
0.00205074
0.0019822
0.00191343
0.00184594
0.00177953
0.00171412
0.00164988
0.00158716
0.00152649
0.00146823
0.00141211
0.00135663
0.00129855
0.00123251
0.00115091
0.00104474
0.000906541
0.000735977
0.000545295
0.000358781
0.000203226
9.52077e-05
3.48049e-05
9.09528e-06
1.49274e-06
1.28456e-07
4.62309e-09
5.44135e-11
5.30094e-13
3.72237e-13
3.72666e-13
3.73631e-13
3.73904e-13
3.72615e-13
3.67743e-13
3.58345e-13
3.45267e-13
3.3031e-13
3.15298e-13
3.01424e-13
2.8905e-13
2.77902e-13
2.67459e-13
2.57256e-13
2.4701e-13
2.36631e-13
2.2617e-13
2.15742e-13
2.05461e-13
1.95399e-13
1.85573e-13
1.75962e-13
0.137164
0.137164
0.137164
0.137164
0.137164
0.137164
0.137164
0.137164
0.137164
0.137164
0.137164
0.137164
0.137164
0.137164
0.137164
0.137164
0.137164
0.137164
0.137164
0.137164
0.137164
0.137164
0.137164
0.137164
0.137164
0.137164
0.137164
0.137164
0.137164
0.137164
0.137164
0.137164
0.137164
0.137164
0.137164
0.137164
0.137164
0.137164
0.137164
0.137164
0.137164
0.137164
0.137164
0.137164
0.137164
0.137164
0.137164
0.137164
0.137164
0.137164
0.137164
0.137164
0.137164
0.137164
0.137164
0.137164
0.137164
0.137164
0.137164
0.137164
0.137164
0.137164
0.137164
0.137164
0.137164
0.137164
0.137164
0.137164
0.137164
0.137164
0.137164
0.137164
0.137164
0.137164
0.137164
0.137164
0.137164
0.137164
0.137164
0.137164
0.137164
0.137164
0.137164
0.137164
0.137164
0.137164
0.137164
0.137164
0.137164
0.137164
0.137164
0.137164
0.137164
0.137164
0.137164
0.137164
0.137164
0.137164
0.137164
0.137164
0.137164
0.137164
0.137164
0.137164
0.137164
0.137164
0.137164
0.137156
0.137031
0.133918
0.0789028
0.0122497
0.0022552
0.00210802
0.0020429
0.00197414
0.00190552
0.00183818
0.0017719
0.00170664
0.00164253
0.00157996
0.00151945
0.00146135
0.00140537
0.00134998
0.00129188
0.00122568
0.00114376
0.00103715
0.00089854
0.00072791
0.000537818
0.000352637
0.000198889
9.26701e-05
3.36422e-05
8.71398e-06
1.41441e-06
1.20105e-07
4.25736e-09
4.93137e-11
5.10348e-13
3.70036e-13
3.70518e-13
3.71637e-13
3.72112e-13
3.7107e-13
3.66601e-13
3.57535e-13
3.44684e-13
3.29898e-13
3.15025e-13
3.01256e-13
2.88951e-13
2.77848e-13
2.67436e-13
2.57251e-13
2.47013e-13
2.36636e-13
2.26173e-13
2.15744e-13
2.05463e-13
1.95399e-13
1.85573e-13
1.75962e-13
0.137164
0.137164
0.137164
0.137164
0.137164
0.137164
0.137164
0.137164
0.137164
0.137164
0.137164
0.137164
0.137164
0.137164
0.137164
0.137164
0.137164
0.137164
0.137164
0.137164
0.137164
0.137164
0.137164
0.137164
0.137164
0.137164
0.137164
0.137164
0.137164
0.137164
0.137164
0.137164
0.137164
0.137164
0.137164
0.137164
0.137164
0.137164
0.137164
0.137164
0.137164
0.137164
0.137164
0.137164
0.137164
0.137164
0.137164
0.137164
0.137164
0.137164
0.137164
0.137164
0.137164
0.137164
0.137164
0.137164
0.137164
0.137164
0.137164
0.137164
0.137164
0.137164
0.137164
0.137164
0.137164
0.137164
0.137164
0.137164
0.137164
0.137164
0.137164
0.137164
0.137164
0.137164
0.137164
0.137164
0.137164
0.137164
0.137164
0.137164
0.137164
0.137164
0.137164
0.137164
0.137164
0.137164
0.137164
0.137164
0.137164
0.137164
0.137164
0.137164
0.137164
0.137164
0.137164
0.137164
0.137164
0.137164
0.137164
0.137164
0.137164
0.137164
0.137164
0.137164
0.137164
0.137164
0.137163
0.137153
0.136981
0.132594
0.0690024
0.00945589
0.00220674
0.00209973
0.0020345
0.00196557
0.00189711
0.00182993
0.0017638
0.00169867
0.00163472
0.00157231
0.00151197
0.00145404
0.0013982
0.00134289
0.00128478
0.0012184
0.00113612
0.00102902
0.000889968
0.000719272
0.000529827
0.000346089
0.000194284
8.99903e-05
3.24224e-05
8.31702e-06
1.33358e-06
1.1157e-07
3.88735e-09
4.42101e-11
4.90548e-13
3.67583e-13
3.68113e-13
3.69379e-13
3.70055e-13
3.69224e-13
3.65152e-13
3.56455e-13
3.43877e-13
3.29314e-13
3.14629e-13
3.01002e-13
2.88792e-13
2.77751e-13
2.67384e-13
2.5723e-13
2.47009e-13
2.36639e-13
2.26178e-13
2.15748e-13
2.05465e-13
1.95401e-13
1.85574e-13
1.75962e-13
0.137164
0.137164
0.137164
0.137164
0.137164
0.137164
0.137164
0.137164
0.137164
0.137164
0.137164
0.137164
0.137164
0.137164
0.137164
0.137164
0.137164
0.137164
0.137164
0.137164
0.137164
0.137164
0.137164
0.137164
0.137164
0.137164
0.137164
0.137164
0.137164
0.137164
0.137164
0.137164
0.137164
0.137164
0.137164
0.137164
0.137164
0.137164
0.137164
0.137164
0.137164
0.137164
0.137164
0.137164
0.137164
0.137164
0.137164
0.137164
0.137164
0.137164
0.137164
0.137164
0.137164
0.137164
0.137164
0.137164
0.137164
0.137164
0.137164
0.137164
0.137164
0.137164
0.137164
0.137164
0.137164
0.137164
0.137164
0.137164
0.137164
0.137164
0.137164
0.137164
0.137164
0.137164
0.137164
0.137164
0.137164
0.137164
0.137164
0.137164
0.137164
0.137164
0.137164
0.137164
0.137164
0.137164
0.137164
0.137164
0.137164
0.137164
0.137164
0.137164
0.137164
0.137164
0.137164
0.137164
0.137164
0.137164
0.137164
0.137164
0.137164
0.137164
0.137164
0.137164
0.137164
0.137164
0.137163
0.137148
0.136904
0.130511
0.0586546
0.00712292
0.00217597
0.00209111
0.00202558
0.00195656
0.00188828
0.00182126
0.00175527
0.0016903
0.0016265
0.00156426
0.00150409
0.00144634
0.00139066
0.00133543
0.00127728
0.0012107
0.00112803
0.0010204
0.000880868
0.000710104
0.000521359
0.000339171
0.000189438
8.71844e-05
3.11538e-05
7.90745e-06
1.25098e-06
1.0295e-07
3.51847e-09
3.91944e-11
4.7108e-13
3.64886e-13
3.6546e-13
3.66864e-13
3.67736e-13
3.67085e-13
3.63392e-13
3.55082e-13
3.42811e-13
3.2851e-13
3.14064e-13
3.0063e-13
2.88552e-13
2.77597e-13
2.67289e-13
2.5718e-13
2.46989e-13
2.36635e-13
2.26181e-13
2.15753e-13
2.05469e-13
1.95403e-13
1.85575e-13
1.75963e-13
0.137164
0.137164
0.137164
0.137164
0.137164
0.137164
0.137164
0.137164
0.137164
0.137164
0.137164
0.137164
0.137164
0.137164
0.137164
0.137164
0.137164
0.137164
0.137164
0.137164
0.137164
0.137164
0.137164
0.137164
0.137164
0.137164
0.137164
0.137164
0.137164
0.137164
0.137164
0.137164
0.137164
0.137164
0.137164
0.137164
0.137164
0.137164
0.137164
0.137164
0.137164
0.137164
0.137164
0.137164
0.137164
0.137164
0.137164
0.137164
0.137164
0.137164
0.137164
0.137164
0.137164
0.137164
0.137164
0.137164
0.137164
0.137164
0.137164
0.137164
0.137164
0.137164
0.137164
0.137164
0.137164
0.137164
0.137164
0.137164
0.137164
0.137164
0.137164
0.137164
0.137164
0.137164
0.137164
0.137164
0.137164
0.137164
0.137164
0.137164
0.137164
0.137164
0.137164
0.137164
0.137164
0.137164
0.137164
0.137164
0.137164
0.137164
0.137164
0.137164
0.137164
0.137164
0.137164
0.137164
0.137164
0.137164
0.137164
0.137164
0.137164
0.137164
0.137164
0.137164
0.137164
0.137164
0.137162
0.137142
0.136779
0.127259
0.0484854
0.00523214
0.00215609
0.0020822
0.0020162
0.00194716
0.00187907
0.00181221
0.00174638
0.00168156
0.00161792
0.00155585
0.00149587
0.0014383
0.00138278
0.00132763
0.00126944
0.00120263
0.00111953
0.00101131
0.000871272
0.00070044
0.000512448
0.00033191
0.00018437
8.42659e-05
2.98439e-05
7.48819e-06
1.16734e-06
9.43378e-08
3.15572e-09
3.43504e-11
4.52286e-13
3.61955e-13
3.62569e-13
3.64102e-13
3.6516e-13
3.64664e-13
3.61323e-13
3.53405e-13
3.4146e-13
3.2745e-13
3.13282e-13
3.00096e-13
2.88202e-13
2.77367e-13
2.67139e-13
2.57089e-13
2.46943e-13
2.36618e-13
2.26179e-13
2.15756e-13
2.05474e-13
1.95407e-13
1.85578e-13
1.75965e-13
0.137164
0.137164
0.137164
0.137164
0.137164
0.137164
0.137164
0.137164
0.137164
0.137164
0.137164
0.137164
0.137164
0.137164
0.137164
0.137164
0.137164
0.137164
0.137164
0.137164
0.137164
0.137164
0.137164
0.137164
0.137164
0.137164
0.137164
0.137164
0.137164
0.137164
0.137164
0.137164
0.137164
0.137164
0.137164
0.137164
0.137164
0.137164
0.137164
0.137164
0.137164
0.137164
0.137164
0.137164
0.137164
0.137164
0.137164
0.137164
0.137164
0.137164
0.137164
0.137164
0.137164
0.137164
0.137164
0.137164
0.137164
0.137164
0.137164
0.137164
0.137164
0.137164
0.137164
0.137164
0.137164
0.137164
0.137164
0.137164
0.137164
0.137164
0.137164
0.137164
0.137164
0.137164
0.137164
0.137164
0.137164
0.137164
0.137164
0.137164
0.137164
0.137164
0.137164
0.137164
0.137164
0.137164
0.137164
0.137164
0.137164
0.137164
0.137164
0.137164
0.137164
0.137164
0.137164
0.137164
0.137164
0.137164
0.137164
0.137164
0.137164
0.137164
0.137164
0.137164
0.137164
0.137164
0.137162
0.137131
0.13657
0.122141
0.0388575
0.00388739
0.00214191
0.00207303
0.00200644
0.00193744
0.00186954
0.00180285
0.00173717
0.00167251
0.00160903
0.00154714
0.00148735
0.00142997
0.0013746
0.00131953
0.00126127
0.00119422
0.00111064
0.0010018
0.000861206
0.000690305
0.000503117
0.000324329
0.000179101
8.12489e-05
2.84994e-05
7.06194e-06
1.0834e-06
8.58305e-08
2.80397e-09
2.97521e-11
4.34445e-13
3.58802e-13
3.59452e-13
3.61105e-13
3.62333e-13
3.61972e-13
3.58952e-13
3.51422e-13
3.39816e-13
3.2611e-13
3.12248e-13
2.99351e-13
2.87697e-13
2.77034e-13
2.66917e-13
2.56942e-13
2.46855e-13
2.36574e-13
2.26163e-13
2.15754e-13
2.05477e-13
1.95412e-13
1.85582e-13
1.75967e-13
0.137164
0.137164
0.137164
0.137164
0.137164
0.137164
0.137164
0.137164
0.137164
0.137164
0.137164
0.137164
0.137164
0.137164
0.137164
0.137164
0.137164
0.137164
0.137164
0.137164
0.137164
0.137164
0.137164
0.137164
0.137164
0.137164
0.137164
0.137164
0.137164
0.137164
0.137164
0.137164
0.137164
0.137164
0.137164
0.137164
0.137164
0.137164
0.137164
0.137164
0.137164
0.137164
0.137164
0.137164
0.137164
0.137164
0.137164
0.137164
0.137164
0.137164
0.137164
0.137164
0.137164
0.137164
0.137164
0.137164
0.137164
0.137164
0.137164
0.137164
0.137164
0.137164
0.137164
0.137164
0.137164
0.137164
0.137164
0.137164
0.137164
0.137164
0.137164
0.137164
0.137164
0.137164
0.137164
0.137164
0.137164
0.137164
0.137164
0.137164
0.137164
0.137164
0.137164
0.137164
0.137164
0.137164
0.137164
0.137164
0.137164
0.137164
0.137164
0.137164
0.137164
0.137164
0.137164
0.137164
0.137164
0.137164
0.137164
0.137164
0.137164
0.137164
0.137164
0.137164
0.137164
0.137164
0.13716
0.137114
0.136212
0.114046
0.0298454
0.00302844
0.0021303
0.00206363
0.00199637
0.00192744
0.00185973
0.0017932
0.00172769
0.00166318
0.00159987
0.00153815
0.00147856
0.00142137
0.00136616
0.00131116
0.00125282
0.00118548
0.00110139
0.000991867
0.000850686
0.000679717
0.000493387
0.000316447
0.000173649
7.81469e-05
2.71281e-05
6.63169e-06
9.99862e-07
7.75156e-08
2.46753e-09
2.54615e-11
4.17765e-13
3.55441e-13
3.56123e-13
3.57885e-13
3.59267e-13
3.59019e-13
3.5629e-13
3.49135e-13
3.37872e-13
3.2448e-13
3.10939e-13
2.9836e-13
2.8699e-13
2.76553e-13
2.66596e-13
2.56727e-13
2.46714e-13
2.36491e-13
2.26122e-13
2.15739e-13
2.05475e-13
1.95415e-13
1.85587e-13
1.75971e-13
0.137164
0.137164
0.137164
0.137164
0.137164
0.137164
0.137164
0.137164
0.137164
0.137164
0.137164
0.137164
0.137164
0.137164
0.137164
0.137164
0.137164
0.137164
0.137164
0.137164
0.137164
0.137164
0.137164
0.137164
0.137164
0.137164
0.137164
0.137164
0.137164
0.137164
0.137164
0.137164
0.137164
0.137164
0.137164
0.137164
0.137164
0.137164
0.137164
0.137164
0.137164
0.137164
0.137164
0.137164
0.137164
0.137164
0.137164
0.137164
0.137164
0.137164
0.137164
0.137164
0.137164
0.137164
0.137164
0.137164
0.137164
0.137164
0.137164
0.137164
0.137164
0.137164
0.137164
0.137164
0.137164
0.137164
0.137164
0.137164
0.137164
0.137164
0.137164
0.137164
0.137164
0.137164
0.137164
0.137164
0.137164
0.137164
0.137164
0.137164
0.137164
0.137164
0.137164
0.137164
0.137164
0.137164
0.137164
0.137164
0.137164
0.137164
0.137164
0.137164
0.137164
0.137164
0.137164
0.137164
0.137164
0.137164
0.137164
0.137164
0.137164
0.137164
0.137164
0.137164
0.137164
0.137164
0.137158
0.137085
0.135573
0.101949
0.0217392
0.00254462
0.00211965
0.00205398
0.00198602
0.00191719
0.00184968
0.00178331
0.00171795
0.0016536
0.00159046
0.00152893
0.00146953
0.00141253
0.00135748
0.00130253
0.0012441
0.00117644
0.00109178
0.000981531
0.000839725
0.000668689
0.000483276
0.000308285
0.000168028
7.49686e-05
2.57357e-05
6.20025e-06
9.17424e-07
6.94743e-08
2.14997e-09
2.15241e-11
4.02382e-13
3.51886e-13
3.52599e-13
3.54456e-13
3.55972e-13
3.55818e-13
3.53348e-13
3.46549e-13
3.35629e-13
3.22557e-13
3.09344e-13
2.971e-13
2.86044e-13
2.75877e-13
2.66133e-13
2.56417e-13
2.46506e-13
2.36356e-13
2.26043e-13
2.157e-13
2.05461e-13
1.95414e-13
1.8559e-13
1.75976e-13
0.137164
0.137164
0.137164
0.137164
0.137164
0.137164
0.137164
0.137164
0.137164
0.137164
0.137164
0.137164
0.137164
0.137164
0.137164
0.137164
0.137164
0.137164
0.137164
0.137164
0.137164
0.137164
0.137164
0.137164
0.137164
0.137164
0.137164
0.137164
0.137164
0.137164
0.137164
0.137164
0.137164
0.137164
0.137164
0.137164
0.137164
0.137164
0.137164
0.137164
0.137164
0.137164
0.137164
0.137164
0.137164
0.137164
0.137164
0.137164
0.137164
0.137164
0.137164
0.137164
0.137164
0.137164
0.137164
0.137164
0.137164
0.137164
0.137164
0.137164
0.137164
0.137164
0.137164
0.137164
0.137164
0.137164
0.137164
0.137164
0.137164
0.137164
0.137164
0.137164
0.137164
0.137164
0.137164
0.137164
0.137164
0.137164
0.137164
0.137164
0.137164
0.137164
0.137164
0.137164
0.137164
0.137164
0.137164
0.137164
0.137164
0.137164
0.137164
0.137164
0.137164
0.137164
0.137164
0.137164
0.137164
0.137164
0.137164
0.137164
0.137164
0.137164
0.137164
0.137164
0.137164
0.137163
0.137155
0.137034
0.134404
0.086236
0.0148126
0.00230921
0.00210929
0.002044
0.00197541
0.00190673
0.0018394
0.00177319
0.00170799
0.0016438
0.00158082
0.00151947
0.00146027
0.00140347
0.00134856
0.00129367
0.00123511
0.00116709
0.00108183
0.000970794
0.000828328
0.000657234
0.000472799
0.000299864
0.000162263
7.17324e-05
2.43312e-05
5.77067e-06
8.36771e-07
6.17804e-08
1.85421e-09
1.79699e-11
3.88354e-13
3.48153e-13
3.48893e-13
3.50834e-13
3.52463e-13
3.52386e-13
3.5014e-13
3.43673e-13
3.33091e-13
3.2034e-13
3.0746e-13
2.9556e-13
2.84837e-13
2.74969e-13
2.65482e-13
2.5597e-13
2.46207e-13
2.36155e-13
2.25914e-13