/*--------------------------------*- C++ -*----------------------------------*\
  =========                 |
  \\      /  F ield         | OpenFOAM: The Open Source CFD Toolbox
   \\    /   O peration     | Website:  https://openfoam.org
    \\  /    A nd           | Version:  13
     \\/     M anipulation  |
\*---------------------------------------------------------------------------*/
FoamFile
{
    format      ascii;
    class       volScalarField;
    location    "0.0018";
    object      H2O;
}
// * * * * * * * * * * * * * * * * * * * * * * * * * * * * * * * * * * * * * //

dimensions      [];

internalField   nonuniform List<scalar> 
33334
(
0.112295
0.112295
0.112295
0.112295
0.112295
0.112295
0.112295
0.112295
0.112295
0.112295
0.112295
0.112295
0.112295
0.112295
0.112295
0.112295
0.112295
0.112295
0.112295
0.112295
0.112295
0.112295
0.112295
0.112295
0.112295
0.112295
0.112295
0.112295
0.112295
0.112295
0.112295
0.112295
0.112295
0.112295
0.112295
0.112295
0.112295
0.112295
0.112295
0.112295
0.112295
0.112295
0.112295
0.112295
0.112295
0.112295
0.112295
0.112295
0.112295
0.112295
0.112295
0.112295
0.112295
0.112295
0.112295
0.112295
0.112295
0.112295
0.112295
0.112295
0.112295
0.112295
0.112295
0.112295
0.112295
0.112295
0.112295
0.112295
0.112295
0.112295
0.112295
0.112295
0.112295
0.112295
0.112295
0.112295
0.112295
0.112295
0.112295
0.112295
0.112295
0.112295
0.112295
0.112295
0.112295
0.112295
0.112295
0.112295
0.112295
0.112295
0.112295
0.112295
0.112295
0.112295
0.112295
0.112295
0.112295
0.112295
0.112295
0.112295
0.112295
0.112295
0.112295
0.112295
0.112295
0.112295
0.112295
0.112293
0.11227
0.111789
0.0983468
0.0291
0.00288875
0.00176481
0.00170885
0.00165371
0.0015967
0.00154068
0.00148569
0.00143157
0.00137838
0.00132643
0.00127612
0.00122779
0.00118129
0.0011355
0.00108792
0.00103426
0.000968344
0.000882659
0.000770576
0.000630876
0.000472578
0.00031526
0.000181713
8.70705e-05
3.27891e-05
8.90675e-06
1.53458e-06
1.39996e-07
5.37543e-09
6.74613e-11
5.23874e-13
3.122e-13
3.11906e-13
3.11707e-13
3.10902e-13
3.08433e-13
3.0323e-13
2.94806e-13
2.83637e-13
2.71028e-13
2.5847e-13
2.46951e-13
2.36734e-13
2.27561e-13
2.18989e-13
2.10628e-13
2.02238e-13
1.93742e-13
1.85179e-13
1.76642e-13
1.68225e-13
1.59986e-13
1.5194e-13
1.44071e-13
0.112295
0.112295
0.112295
0.112295
0.112295
0.112295
0.112295
0.112295
0.112295
0.112295
0.112295
0.112295
0.112295
0.112295
0.112295
0.112295
0.112295
0.112295
0.112295
0.112295
0.112295
0.112295
0.112295
0.112295
0.112295
0.112295
0.112295
0.112295
0.112295
0.112295
0.112295
0.112295
0.112295
0.112295
0.112295
0.112295
0.112295
0.112295
0.112295
0.112295
0.112295
0.112295
0.112295
0.112295
0.112295
0.112295
0.112295
0.112295
0.112295
0.112295
0.112295
0.112295
0.112295
0.112295
0.112295
0.112295
0.112295
0.112295
0.112295
0.112295
0.112295
0.112295
0.112295
0.112295
0.112295
0.112295
0.112295
0.112295
0.112295
0.112295
0.112295
0.112295
0.112295
0.112295
0.112295
0.112295
0.112295
0.112295
0.112295
0.112295
0.112295
0.112295
0.112295
0.112295
0.112295
0.112295
0.112295
0.112295
0.112295
0.112295
0.112295
0.112295
0.112295
0.112295
0.112295
0.112295
0.112295
0.112295
0.112295
0.112295
0.112295
0.112295
0.112295
0.112295
0.112295
0.112295
0.112295
0.112293
0.112271
0.111805
0.0986726
0.0294987
0.00293551
0.00176425
0.00170836
0.00165351
0.00159682
0.00154102
0.00148611
0.001432
0.00137883
0.00132688
0.00127658
0.00122825
0.00118174
0.00113597
0.00108842
0.00103486
0.000969114
0.000883672
0.000771855
0.000632343
0.000474031
0.000316459
0.000182519
8.7506e-05
3.29701e-05
8.95941e-06
1.54378e-06
1.4077e-07
5.39969e-09
6.76466e-11
5.23401e-13
3.12063e-13
3.118e-13
3.11619e-13
3.10844e-13
3.08409e-13
3.03223e-13
2.94806e-13
2.83638e-13
2.7103e-13
2.58471e-13
2.46952e-13
2.36735e-13
2.27561e-13
2.18988e-13
2.10627e-13
2.02238e-13
1.93742e-13
1.85178e-13
1.76641e-13
1.68224e-13
1.59985e-13
1.5194e-13
1.44071e-13
0.112295
0.112295
0.112295
0.112295
0.112295
0.112295
0.112295
0.112295
0.112295
0.112295
0.112295
0.112295
0.112295
0.112295
0.112295
0.112295
0.112295
0.112295
0.112295
0.112295
0.112295
0.112295
0.112295
0.112295
0.112295
0.112295
0.112295
0.112295
0.112295
0.112295
0.112295
0.112295
0.112295
0.112295
0.112295
0.112295
0.112295
0.112295
0.112295
0.112295
0.112295
0.112295
0.112295
0.112295
0.112295
0.112295
0.112295
0.112295
0.112295
0.112295
0.112295
0.112295
0.112295
0.112295
0.112295
0.112295
0.112295
0.112295
0.112295
0.112295
0.112295
0.112295
0.112295
0.112295
0.112295
0.112295
0.112295
0.112295
0.112295
0.112295
0.112295
0.112295
0.112295
0.112295
0.112295
0.112295
0.112295
0.112295
0.112295
0.112295
0.112295
0.112295
0.112295
0.112295
0.112295
0.112295
0.112295
0.112295
0.112295
0.112295
0.112295
0.112295
0.112295
0.112295
0.112295
0.112295
0.112295
0.112295
0.112295
0.112295
0.112295
0.112295
0.112295
0.112295
0.112295
0.112295
0.112295
0.112293
0.11227
0.111767
0.0977718
0.028511
0.00283486
0.00176303
0.00170756
0.00165275
0.00159608
0.00154025
0.00148533
0.00143124
0.00137809
0.00132617
0.0012759
0.0012276
0.00118112
0.00113536
0.00108781
0.00103422
0.000968425
0.00088291
0.000771009
0.000631436
0.000473145
0.000315721
0.000182021
8.72389e-05
3.28576e-05
8.92334e-06
1.53584e-06
1.39781e-07
5.34725e-09
6.67516e-11
5.19165e-13
3.11766e-13
3.11575e-13
3.11435e-13
3.10714e-13
3.08336e-13
3.03187e-13
2.9479e-13
2.83633e-13
2.71028e-13
2.58469e-13
2.46949e-13
2.36731e-13
2.27556e-13
2.18983e-13
2.10622e-13
2.02233e-13
1.93738e-13
1.85174e-13
1.76637e-13
1.68221e-13
1.59982e-13
1.51937e-13
1.44067e-13
0.112295
0.112295
0.112295
0.112295
0.112295
0.112295
0.112295
0.112295
0.112295
0.112295
0.112295
0.112295
0.112295
0.112295
0.112295
0.112295
0.112295
0.112295
0.112295
0.112295
0.112295
0.112295
0.112295
0.112295
0.112295
0.112295
0.112295
0.112295
0.112295
0.112295
0.112295
0.112295
0.112295
0.112295
0.112295
0.112295
0.112295
0.112295
0.112295
0.112295
0.112295
0.112295
0.112295
0.112295
0.112295
0.112295
0.112295
0.112295
0.112295
0.112295
0.112295
0.112295
0.112295
0.112295
0.112295
0.112295
0.112295
0.112295
0.112295
0.112295
0.112295
0.112295
0.112295
0.112295
0.112295
0.112295
0.112295
0.112295
0.112295
0.112295
0.112295
0.112295
0.112295
0.112295
0.112295
0.112295
0.112295
0.112295
0.112295
0.112295
0.112295
0.112295
0.112295
0.112295
0.112295
0.112295
0.112295
0.112295
0.112295
0.112295
0.112295
0.112295
0.112295
0.112295
0.112295
0.112295
0.112295
0.112295
0.112295
0.112295
0.112295
0.112295
0.112295
0.112295
0.112295
0.112295
0.112295
0.112293
0.112267
0.111714
0.0963893
0.0269776
0.00269312
0.00176101
0.00170588
0.00165089
0.00159418
0.00153836
0.00148347
0.00142942
0.00137631
0.00132444
0.00127421
0.00122595
0.00117952
0.00113378
0.00108622
0.00103258
0.000966702
0.000881065
0.000769048
0.000629439
0.000471291
0.000314222
0.000180998
8.66586e-05
3.25909e-05
8.83111e-06
1.51503e-06
1.37287e-07
5.22419e-09
6.48578e-11
5.11547e-13
3.11298e-13
3.11227e-13
3.11157e-13
3.10512e-13
3.08208e-13
3.03114e-13
2.9475e-13
2.83615e-13
2.7102e-13
2.58464e-13
2.46943e-13
2.36723e-13
2.27548e-13
2.18975e-13
2.10614e-13
2.02226e-13
1.93731e-13
1.85168e-13
1.76632e-13
1.68215e-13
1.59977e-13
1.51932e-13
1.44063e-13
0.112295
0.112295
0.112295
0.112295
0.112295
0.112295
0.112295
0.112295
0.112295
0.112295
0.112295
0.112295
0.112295
0.112295
0.112295
0.112295
0.112295
0.112295
0.112295
0.112295
0.112295
0.112295
0.112295
0.112295
0.112295
0.112295
0.112295
0.112295
0.112295
0.112295
0.112295
0.112295
0.112295
0.112295
0.112295
0.112295
0.112295
0.112295
0.112295
0.112295
0.112295
0.112295
0.112295
0.112295
0.112295
0.112295
0.112295
0.112295
0.112295
0.112295
0.112295
0.112295
0.112295
0.112295
0.112295
0.112295
0.112295
0.112295
0.112295
0.112295
0.112295
0.112295
0.112295
0.112295
0.112295
0.112295
0.112295
0.112295
0.112295
0.112295
0.112295
0.112295
0.112295
0.112295
0.112295
0.112295
0.112295
0.112295
0.112295
0.112295
0.112295
0.112295
0.112295
0.112295
0.112295
0.112295
0.112295
0.112295
0.112295
0.112295
0.112295
0.112295
0.112295
0.112295
0.112295
0.112295
0.112295
0.112295
0.112295
0.112295
0.112295
0.112295
0.112295
0.112295
0.112295
0.112295
0.112295
0.112293
0.112263
0.11163
0.0943742
0.0250138
0.00253045
0.00175799
0.0017032
0.00164803
0.00159132
0.00153556
0.00148072
0.00142672
0.00137367
0.00132184
0.00127167
0.00122347
0.00117708
0.00113137
0.00108381
0.00103012
0.00096415
0.000878397
0.000766288
0.000626705
0.000468796
0.000312196
0.000179568
8.58033e-05
3.21796e-05
8.68656e-06
1.483e-06
1.33613e-07
5.05284e-09
6.23863e-11
5.02134e-13
3.10662e-13
3.1071e-13
3.10753e-13
3.10227e-13
3.08023e-13
3.02999e-13
2.9468e-13
2.83578e-13
2.71005e-13
2.58457e-13
2.46938e-13
2.36718e-13
2.27542e-13
2.18969e-13
2.10608e-13
2.0222e-13
1.93725e-13
1.85163e-13
1.76627e-13
1.68211e-13
1.59973e-13
1.51928e-13
1.4406e-13
0.112295
0.112295
0.112295
0.112295
0.112295
0.112295
0.112295
0.112295
0.112295
0.112295
0.112295
0.112295
0.112295
0.112295
0.112295
0.112295
0.112295
0.112295
0.112295
0.112295
0.112295
0.112295
0.112295
0.112295
0.112295
0.112295
0.112295
0.112295
0.112295
0.112295
0.112295
0.112295
0.112295
0.112295
0.112295
0.112295
0.112295
0.112295
0.112295
0.112295
0.112295
0.112295
0.112295
0.112295
0.112295
0.112295
0.112295
0.112295
0.112295
0.112295
0.112295
0.112295
0.112295
0.112295
0.112295
0.112295
0.112295
0.112295
0.112295
0.112295
0.112295
0.112295
0.112295
0.112295
0.112295
0.112295
0.112295
0.112295
0.112295
0.112295
0.112295
0.112295
0.112295
0.112295
0.112295
0.112295
0.112295
0.112295
0.112295
0.112295
0.112295
0.112295
0.112295
0.112295
0.112295
0.112295
0.112295
0.112295
0.112295
0.112295
0.112295
0.112295
0.112295
0.112295
0.112295
0.112295
0.112295
0.112295
0.112295
0.112295
0.112295
0.112295
0.112295
0.112295
0.112295
0.112295
0.112295
0.112293
0.112258
0.111516
0.0918181
0.0228279
0.00237084
0.001754
0.00169957
0.00164423
0.00158757
0.00153189
0.00147713
0.0014232
0.00137021
0.00131846
0.00126836
0.00122023
0.0011739
0.00112824
0.00108068
0.00102695
0.000960883
0.000874997
0.000762785
0.000623241
0.000465626
0.000309593
0.0001777
8.46713e-05
3.16351e-05
8.49795e-06
1.44224e-06
1.29075e-07
4.84762e-09
5.95027e-11
4.91269e-13
3.09868e-13
3.1e-13
3.10194e-13
3.09808e-13
3.07761e-13
3.02834e-13
2.94569e-13
2.83513e-13
2.70975e-13
2.58445e-13
2.46934e-13
2.36716e-13
2.27541e-13
2.18967e-13
2.10606e-13
2.02218e-13
1.93723e-13
1.85161e-13
1.76625e-13
1.68209e-13
1.59971e-13
1.51927e-13
1.44059e-13
0.112295
0.112295
0.112295
0.112295
0.112295
0.112295
0.112295
0.112295
0.112295
0.112295
0.112295
0.112295
0.112295
0.112295
0.112295
0.112295
0.112295
0.112295
0.112295
0.112295
0.112295
0.112295
0.112295
0.112295
0.112295
0.112295
0.112295
0.112295
0.112295
0.112295
0.112295
0.112295
0.112295
0.112295
0.112295
0.112295
0.112295
0.112295
0.112295
0.112295
0.112295
0.112295
0.112295
0.112295
0.112295
0.112295
0.112295
0.112295
0.112295
0.112295
0.112295
0.112295
0.112295
0.112295
0.112295
0.112295
0.112295
0.112295
0.112295
0.112295
0.112295
0.112295
0.112295
0.112295
0.112295
0.112295
0.112295
0.112295
0.112295
0.112295
0.112295
0.112295
0.112295
0.112295
0.112295
0.112295
0.112295
0.112295
0.112295
0.112295
0.112295
0.112295
0.112295
0.112295
0.112295
0.112295
0.112295
0.112295
0.112295
0.112295
0.112295
0.112295
0.112295
0.112295
0.112295
0.112295
0.112295
0.112295
0.112295
0.112295
0.112295
0.112295
0.112295
0.112295
0.112295
0.112295
0.112295
0.112292
0.112252
0.111352
0.0883749
0.0204149
0.00222043
0.0017493
0.00169523
0.00163971
0.00158313
0.00152754
0.00147286
0.00141901
0.00136611
0.00131444
0.00126443
0.00121639
0.00117015
0.00112454
0.00107699
0.00102321
0.00095701
0.000870944
0.00075858
0.000619051
0.000461759
0.000306395
0.000175399
8.32852e-05
3.09767e-05
8.27351e-06
1.39455e-06
1.23838e-07
4.61338e-09
5.62144e-11
4.78792e-13
3.08895e-13
3.09093e-13
3.09447e-13
3.09212e-13
3.07382e-13
3.02599e-13
2.94408e-13
2.83405e-13
2.70918e-13
2.58421e-13
2.46926e-13
2.36715e-13
2.27542e-13
2.18969e-13
2.10607e-13
2.02218e-13
1.93722e-13
1.8516e-13
1.76624e-13
1.68209e-13
1.59971e-13
1.51927e-13
1.44058e-13
0.112295
0.112295
0.112295
0.112295
0.112295
0.112295
0.112295
0.112295
0.112295
0.112295
0.112295
0.112295
0.112295
0.112295
0.112295
0.112295
0.112295
0.112295
0.112295
0.112295
0.112295
0.112295
0.112295
0.112295
0.112295
0.112295
0.112295
0.112295
0.112295
0.112295
0.112295
0.112295
0.112295
0.112295
0.112295
0.112295
0.112295
0.112295
0.112295
0.112295
0.112295
0.112295
0.112295
0.112295
0.112295
0.112295
0.112295
0.112295
0.112295
0.112295
0.112295
0.112295
0.112295
0.112295
0.112295
0.112295
0.112295
0.112295
0.112295
0.112295
0.112295
0.112295
0.112295
0.112295
0.112295
0.112295
0.112295
0.112295
0.112295
0.112295
0.112295
0.112295
0.112295
0.112295
0.112295
0.112295
0.112295
0.112295
0.112295
0.112295
0.112295
0.112295
0.112295
0.112295
0.112295
0.112295
0.112295
0.112295
0.112295
0.112295
0.112295
0.112295
0.112295
0.112295
0.112295
0.112295
0.112295
0.112295
0.112295
0.112295
0.112295
0.112295
0.112295
0.112295
0.112295
0.112295
0.112295
0.112292
0.112243
0.11113
0.0839704
0.0178521
0.00209083
0.00174407
0.0016903
0.0016346
0.00157809
0.00152261
0.00146803
0.00141427
0.00136146
0.0013099
0.00125999
0.00121205
0.0011659
0.00112035
0.00107281
0.00101895
0.000952586
0.000866284
0.000753707
0.00061416
0.00045722
0.000302637
0.000172708
8.16795e-05
3.02233e-05
8.01997e-06
1.34124e-06
1.18024e-07
4.35434e-09
5.25639e-11
4.64841e-13
3.07723e-13
3.07976e-13
3.08484e-13
3.08402e-13
3.06834e-13
3.0226e-13
2.94178e-13
2.83241e-13
2.70818e-13
2.58371e-13
2.46905e-13
2.36709e-13
2.27542e-13
2.18971e-13
2.10609e-13
2.02219e-13
1.93723e-13
1.8516e-13
1.76624e-13
1.68209e-13
1.59971e-13
1.51927e-13
1.44058e-13
0.112295
0.112295
0.112295
0.112295
0.112295
0.112295
0.112295
0.112295
0.112295
0.112295
0.112295
0.112295
0.112295
0.112295
0.112295
0.112295
0.112295
0.112295
0.112295
0.112295
0.112295
0.112295
0.112295
0.112295
0.112295
0.112295
0.112295
0.112295
0.112295
0.112295
0.112295
0.112295
0.112295
0.112295
0.112295
0.112295
0.112295
0.112295
0.112295
0.112295
0.112295
0.112295
0.112295
0.112295
0.112295
0.112295
0.112295
0.112295
0.112295
0.112295
0.112295
0.112295
0.112295
0.112295
0.112295
0.112295
0.112295
0.112295
0.112295
0.112295
0.112295
0.112295
0.112295
0.112295
0.112295
0.112295
0.112295
0.112295
0.112295
0.112295
0.112295
0.112295
0.112295
0.112295
0.112295
0.112295
0.112295
0.112295
0.112295
0.112295
0.112295
0.112295
0.112295
0.112295
0.112295
0.112295
0.112295
0.112295
0.112295
0.112295
0.112295
0.112295
0.112295
0.112295
0.112295
0.112295
0.112295
0.112295
0.112295
0.112295
0.112295
0.112295
0.112295
0.112295
0.112295
0.112295
0.112295
0.112291
0.112231
0.110815
0.0786075
0.0152238
0.00198577
0.00173839
0.00168486
0.00162895
0.00157254
0.00151717
0.00146269
0.00140904
0.00135633
0.00130487
0.00125507
0.00120725
0.0011612
0.00111572
0.00106818
0.00101422
0.000947651
0.000861062
0.000748221
0.000608632
0.000452085
0.000298393
0.000169685
7.989e-05
2.93915e-05
7.74274e-06
1.28345e-06
1.11762e-07
4.07619e-09
4.86413e-11
4.49776e-13
3.06341e-13
3.06645e-13
3.07299e-13
3.07363e-13
3.0607e-13
3.01766e-13
2.93848e-13
2.83004e-13
2.70658e-13
2.5828e-13
2.46858e-13
2.36688e-13
2.27536e-13
2.18972e-13
2.10612e-13
2.02222e-13
1.93725e-13
1.85161e-13
1.76625e-13
1.68209e-13
1.59971e-13
1.51927e-13
1.44058e-13
0.112295
0.112295
0.112295
0.112295
0.112295
0.112295
0.112295
0.112295
0.112295
0.112295
0.112295
0.112295
0.112295
0.112295
0.112295
0.112295
0.112295
0.112295
0.112295
0.112295
0.112295
0.112295
0.112295
0.112295
0.112295
0.112295
0.112295
0.112295
0.112295
0.112295
0.112295
0.112295
0.112295
0.112295
0.112295
0.112295
0.112295
0.112295
0.112295
0.112295
0.112295
0.112295
0.112295
0.112295
0.112295
0.112295
0.112295
0.112295
0.112295
0.112295
0.112295
0.112295
0.112295
0.112295
0.112295
0.112295
0.112295
0.112295
0.112295
0.112295
0.112295
0.112295
0.112295
0.112295
0.112295
0.112295
0.112295
0.112295
0.112295
0.112295
0.112295
0.112295
0.112295
0.112295
0.112295
0.112295
0.112295
0.112295
0.112295
0.112295
0.112295
0.112295
0.112295
0.112295
0.112295
0.112295
0.112295
0.112295
0.112295
0.112295
0.112295
0.112295
0.112295
0.112295
0.112295
0.112295
0.112295
0.112295
0.112295
0.112295
0.112295
0.112295
0.112295
0.112295
0.112295
0.112295
0.112295
0.11229
0.112213
0.110346
0.0721448
0.0125775
0.00190477
0.00173229
0.00167893
0.00162281
0.00156651
0.00151126
0.00145688
0.00140334
0.00135074
0.00129939
0.00124972
0.00120202
0.00115608
0.00111066
0.00106311
0.00100904
0.000942239
0.00085532
0.000742177
0.000602538
0.000446428
0.000293731
0.00016638
7.79457e-05
2.84945e-05
7.44623e-06
1.22209e-06
1.05166e-07
3.78488e-09
4.45478e-11
4.33983e-13
3.04747e-13
3.05099e-13
3.05888e-13
3.06112e-13
3.05057e-13
3.01068e-13
2.93374e-13
2.82667e-13
2.70422e-13
2.58132e-13
2.46773e-13
2.36643e-13
2.27516e-13
2.18966e-13
2.10613e-13
2.02225e-13
1.93728e-13
1.85163e-13
1.76626e-13
1.68209e-13
1.59971e-13
1.51927e-13
1.44059e-13
0.112295
0.112295
0.112295
0.112295
0.112295
0.112295
0.112295
0.112295
0.112295
0.112295
0.112295
0.112295
0.112295
0.112295
0.112295
0.112295
0.112295
0.112295
0.112295
0.112295
0.112295
0.112295
0.112295
0.112295
0.112295
0.112295
0.112295
0.112295
0.112295
0.112295
0.112295
0.112295
0.112295
0.112295
0.112295
0.112295
0.112295
0.112295
0.112295
0.112295
0.112295
0.112295
0.112295
0.112295
0.112295
0.112295
0.112295
0.112295
0.112295
0.112295
0.112295
0.112295
0.112295
0.112295
0.112295
0.112295
0.112295
0.112295
0.112295
0.112295
0.112295
0.112295
0.112295
0.112295
0.112295
0.112295
0.112295
0.112295
0.112295
0.112295
0.112295
0.112295
0.112295
0.112295
0.112295
0.112295
0.112295
0.112295
0.112295
0.112295
0.112295
0.112295
0.112295
0.112295
0.112295
0.112295
0.112295
0.112295
0.112295
0.112295
0.112295
0.112295
0.112295
0.112295
0.112295
0.112295
0.112295
0.112295
0.112295
0.112295
0.112295
0.112295
0.112295
0.112295
0.112295
0.112295
0.112295
0.112288
0.112186
0.109638
0.064597
0.0100287
0.00184631
0.00172582
0.00167251
0.00161621
0.00156003
0.0015049
0.00145064
0.00139721
0.00134472
0.0012935
0.00124396
0.00119639
0.00115056
0.00110521
0.00105765
0.00100346
0.000936387
0.000849103
0.000735626
0.000595933
0.000440307
0.000288701
0.000162829
7.58682e-05
2.75426e-05
7.13406e-06
1.15797e-06
9.83291e-08
3.48547e-09
4.03727e-11
4.17817e-13
3.02945e-13
3.0334e-13
3.04256e-13
3.04645e-13
3.03792e-13
3.00133e-13
2.92711e-13
2.82189e-13
2.70085e-13
2.57908e-13
2.46636e-13
2.36562e-13
2.27472e-13
2.18948e-13
2.10609e-13
2.02227e-13
1.93732e-13
1.85166e-13
1.76628e-13
1.6821e-13
1.59972e-13
1.51927e-13
1.44059e-13
0.112295
0.112295
0.112295
0.112295
0.112295
0.112295
0.112295
0.112295
0.112295
0.112295
0.112295
0.112295
0.112295
0.112295
0.112295
0.112295
0.112295
0.112295
0.112295
0.112295
0.112295
0.112295
0.112295
0.112295
0.112295
0.112295
0.112295
0.112295
0.112295
0.112295
0.112295
0.112295
0.112295
0.112295
0.112295
0.112295
0.112295
0.112295
0.112295
0.112295
0.112295
0.112295
0.112295
0.112295
0.112295
0.112295
0.112295
0.112295
0.112295
0.112295
0.112295
0.112295
0.112295
0.112295
0.112295
0.112295
0.112295
0.112295
0.112295
0.112295
0.112295
0.112295
0.112295
0.112295
0.112295
0.112295
0.112295
0.112295
0.112295
0.112295
0.112295
0.112295
0.112295
0.112295
0.112295
0.112295
0.112295
0.112295
0.112295
0.112295
0.112295
0.112295
0.112295
0.112295
0.112295
0.112295
0.112295
0.112295
0.112295
0.112295
0.112295
0.112295
0.112295
0.112295
0.112295
0.112295
0.112295
0.112295
0.112295
0.112295
0.112295
0.112295
0.112295
0.112295
0.112295
0.112295
0.112294
0.112286
0.112146
0.108554
0.0564916
0.00774146
0.00180664
0.00171903
0.00166563
0.00160919
0.00155315
0.00149815
0.00144401
0.00139069
0.00133833
0.00128724
0.00123783
0.00119041
0.0011447
0.00109942
0.00105184
0.000997494
0.000930133
0.000842448
0.000728609
0.000588861
0.000433764
0.00028334
0.000159059
7.36742e-05
2.65439e-05
6.80907e-06
1.09179e-06
9.13416e-08
3.18254e-09
3.61944e-11
4.01607e-13
3.00937e-13
3.01371e-13
3.02408e-13
3.02961e-13
3.0228e-13
2.98947e-13
2.91826e-13
2.81529e-13
2.69607e-13
2.57584e-13
2.46428e-13
2.36431e-13
2.27393e-13
2.18905e-13
2.10592e-13
2.02224e-13
1.93734e-13
1.8517e-13
1.76631e-13
1.68213e-13
1.59973e-13
1.51928e-13
1.44059e-13
0.112295
0.112295
0.112295
0.112295
0.112295
0.112295
0.112295
0.112295
0.112295
0.112295
0.112295
0.112295
0.112295
0.112295
0.112295
0.112295
0.112295
0.112295
0.112295
0.112295
0.112295
0.112295
0.112295
0.112295
0.112295
0.112295
0.112295
0.112295
0.112295
0.112295
0.112295
0.112295
0.112295
0.112295
0.112295
0.112295
0.112295
0.112295
0.112295
0.112295
0.112295
0.112295
0.112295
0.112295
0.112295
0.112295
0.112295
0.112295
0.112295
0.112295
0.112295
0.112295
0.112295
0.112295
0.112295
0.112295
0.112295
0.112295
0.112295
0.112295
0.112295
0.112295
0.112295
0.112295
0.112295
0.112295
0.112295
0.112295
0.112295
0.112295
0.112295
0.112295
0.112295
0.112295
0.112295
0.112295
0.112295
0.112295
0.112295
0.112295
0.112295
0.112295
0.112295
0.112295
0.112295
0.112295
0.112295
0.112295
0.112295
0.112295
0.112295
0.112295
0.112295
0.112295
0.112295
0.112295
0.112295
0.112295
0.112295
0.112295
0.112295
0.112295
0.112295
0.112295
0.112295
0.112295
0.112294
0.112282
0.112082
0.106848
0.04802
0.00583148
0.00178145
0.00171197
0.00165832
0.00160182
0.00154591
0.00149105
0.00143703
0.00138383
0.0013316
0.00128064
0.00123139
0.00118411
0.00113852
0.00109331
0.0010457
0.000991192
0.000923511
0.000835389
0.000721159
0.000581356
0.000426832
0.000277676
0.000155091
7.13771e-05
2.55054e-05
6.47376e-06
1.02416e-06
8.4284e-08
2.88054e-09
3.20881e-11
3.85669e-13
2.98729e-13
2.99199e-13
3.00349e-13
3.01062e-13
3.00529e-13
2.97506e-13
2.90702e-13
2.80656e-13
2.68949e-13
2.57121e-13
2.46123e-13
2.36235e-13
2.27266e-13
2.18827e-13
2.10551e-13
2.02208e-13
1.93731e-13
1.85173e-13
1.76635e-13
1.68216e-13
1.59975e-13
1.51929e-13
1.44059e-13
0.112295
0.112295
0.112295
0.112295
0.112295
0.112295
0.112295
0.112295
0.112295
0.112295
0.112295
0.112295
0.112295
0.112295
0.112295
0.112295
0.112295
0.112295
0.112295
0.112295
0.112295
0.112295
0.112295
0.112295
0.112295
0.112295
0.112295
0.112295
0.112295
0.112295
0.112295
0.112295
0.112295
0.112295
0.112295
0.112295
0.112295
0.112295
0.112295
0.112295
0.112295
0.112295
0.112295
0.112295
0.112295
0.112295
0.112295
0.112295
0.112295
0.112295
0.112295
0.112295
0.112295
0.112295
0.112295
0.112295
0.112295
0.112295
0.112295
0.112295
0.112295
0.112295
0.112295
0.112295
0.112295
0.112295
0.112295
0.112295
0.112295
0.112295
0.112295
0.112295
0.112295
0.112295
0.112295
0.112295
0.112295
0.112295
0.112295
0.112295
0.112295
0.112295
0.112295
0.112295
0.112295
0.112295
0.112295
0.112295
0.112295
0.112295
0.112295
0.112295
0.112295
0.112295
0.112295
0.112295
0.112295
0.112295
0.112295
0.112295
0.112295
0.112295
0.112295
0.112295
0.112295
0.112295
0.112294
0.112277
0.11198
0.104186
0.0396946
0.00428351
0.00176517
0.00170468
0.00165064
0.00159412
0.00153837
0.00148364
0.00142975
0.00137668
0.00132458
0.00127376
0.00122466
0.00117753
0.00113207
0.00108692
0.00103928
0.000984584
0.00091655
0.000827953
0.000713302
0.000573444
0.000419536
0.000271731
0.000150942
6.89878e-05
2.44329e-05
6.13051e-06
9.55694e-07
7.72335e-08
2.58356e-09
2.81224e-11
3.70283e-13
2.96329e-13
2.96832e-13
2.98087e-13
2.98953e-13
2.98548e-13
2.95812e-13
2.8933e-13
2.79551e-13
2.6808e-13
2.56481e-13
2.45686e-13
2.35949e-13
2.27078e-13
2.18704e-13
2.10476e-13
2.0217e-13
1.93717e-13
1.85171e-13
1.76638e-13
1.6822e-13
1.59978e-13
1.51931e-13
1.44061e-13
0.112295
0.112295
0.112295
0.112295
0.112295
0.112295
0.112295
0.112295
0.112295
0.112295
0.112295
0.112295
0.112295
0.112295
0.112295
0.112295
0.112295
0.112295
0.112295
0.112295
0.112295
0.112295
0.112295
0.112295
0.112295
0.112295
0.112295
0.112295
0.112295
0.112295
0.112295
0.112295
0.112295
0.112295
0.112295
0.112295
0.112295
0.112295
0.112295
0.112295
0.112295
0.112295
0.112295
0.112295
0.112295
0.112295
0.112295
0.112295
0.112295
0.112295
0.112295
0.112295
0.112295
0.112295
0.112295
0.112295
0.112295
0.112295
0.112295
0.112295
0.112295
0.112295
0.112295
0.112295
0.112295
0.112295
0.112295
0.112295
0.112295
0.112295
0.112295
0.112295
0.112295
0.112295
0.112295
0.112295
0.112295
0.112295
0.112295
0.112295
0.112295
0.112295
0.112295
0.112295
0.112295
0.112295
0.112295
0.112295
0.112295
0.112295
0.112295
0.112295
0.112295
0.112295
0.112295
0.112295
0.112295
0.112295
0.112295
0.112295
0.112295
0.112295
0.112295
0.112295
0.112295
0.112295
0.112293
0.112268
0.111808
0.0999957
0.0318123
0.00318258
0.00175357
0.00169717
0.00164266
0.00158616
0.00153057
0.00147597
0.00142221
0.00136927
0.0013173
0.00126663
0.00121768
0.0011707
0.00112537
0.00108029
0.00103259
0.000977695
0.000909274
0.000820164
0.000705061
0.000565146
0.000411898
0.000265525
0.000146629
6.65178e-05
2.33322e-05
5.78155e-06
8.86973e-07
7.02687e-08
2.29559e-09
2.43578e-11
3.55676e-13
2.93748e-13
2.9428e-13
2.95633e-13
2.96639e-13
2.96343e-13
2.93871e-13
2.87706e-13
2.78204e-13
2.66983e-13
2.55635e-13
2.45076e-13
2.35535e-13
2.26805e-13
2.18522e-13
2.10356e-13
2.02098e-13
1.93681e-13
1.85157e-13
1.76636e-13
1.68222e-13
1.59982e-13
1.51934e-13
1.44063e-13
0.112295
0.112295
0.112295
0.112295
0.112295
0.112295
0.112295
0.112295
0.112295
0.112295
0.112295
0.112295
0.112295
0.112295
0.112295
0.112295
0.112295
0.112295
0.112295
0.112295
0.112295
0.112295
0.112295
0.112295
0.112295
0.112295
0.112295
0.112295
0.112295
0.112295
0.112295
0.112295
0.112295
0.112295
0.112295
0.112295
0.112295
0.112295
0.112295
0.112295
0.112295
0.112295
0.112295
0.112295
0.112295
0.112295
0.112295
0.112295
0.112295
0.112295
0.112295
0.112295
0.112295
0.112295
0.112295
0.112295
0.112295
0.112295
0.112295
0.112295
0.112295
0.112295
0.112295
0.112295
0.112295
0.112295
0.112295
0.112295
0.112295
0.112295
0.112295
0.112295
0.112295
0.112295
0.112295
0.112295
0.112295
0.112295
0.112295
0.112295
0.112295
0.112295
0.112295
0.112295
0.112295
0.112295
0.112295
0.112295
0.112295
0.112295
0.112295
0.112295
0.112295
0.112295
0.112295
0.112295
0.112295
0.112295
0.112295
0.112295
0.112295
0.112295
0.112295
0.112295
0.112295
0.112295
0.112292
0.112254
0.111515
0.0933683
0.0244342
0.00247936
0.00174406
0.00168948
0.00163441
0.00157798
0.00152254
0.00146808
0.00141444
0.00136163
0.0013098
0.00125927
0.00121048
0.00116367
0.00111846
0.00107344
0.00102567
0.000970543
0.000901699
0.000812033
0.000696449
0.000556478
0.000403932
0.000259073
0.000142165
6.39782e-05
2.22095e-05
5.4293e-06
8.18578e-07
6.34613e-08
2.02015e-09
2.08451e-11
3.42021e-13
2.90997e-13
2.91555e-13
2.92997e-13
2.94129e-13
2.93925e-13
2.91691e-13
2.85834e-13
2.76612e-13
2.65649e-13
2.54563e-13
2.44264e-13
2.34956e-13
2.26411e-13
2.1826e-13
2.1018e-13
2.01983e-13
1.93613e-13
1.85124e-13
1.76623e-13
1.68221e-13
1.59985e-13
1.51938e-13
1.44066e-13
0.112295
0.112295
0.112295
0.112295
0.112295
0.112295
0.112295
0.112295
0.112295
0.112295
0.112295
0.112295
0.112295
0.112295
0.112295
0.112295
0.112295
0.112295
0.112295
0.112295
0.112295
0.112295
0.112295
0.112295
0.112295
0.112295
0.112295
0.112295
0.112295
0.112295
0.112295
0.112295
0.112295
0.112295
0.112295
0.112295
0.112295
0.112295
0.112295
0.112295
0.112295
0.112295
0.112295
0.112295
0.112295
0.112295
0.112295
0.112295
0.112295
0.112295
0.112295
0.112295
0.112295
0.112295
0.112295
0.112295
0.112295
0.112295
0.112295
0.112295
0.112295
0.112295
0.112295
0.112295
0.112295
0.112295
0.112295
0.112295
0.112295
0.112295
0.112295
0.112295
0.112295
0.112295
0.112295
0.112295
0.112295
0.112295
0.112295
0.112295
0.112295
0.112295
0.112295
0.112295
0.112295
0.112295
0.112295
0.112295
0.112295
0.112295
0.112295
0.112295
0.112295
0.112295
0.112295
0.112295
0.112295
0.112295
0.112295
0.112295
0.112295
0.112295
0.112295
0.112295
0.112295
0.112295
0.11229
0.11223
0.110992
0.0834645
0.0177977
0.00208326
0.00173534
0.00168157
0.00162593
0.00156959
0.00151431
0.00145998
0.00140647
0.00135379
0.00130209
0.00125172
0.00120309
0.00115643
0.00111135
0.00106637
0.00101853
0.000963139
0.000893833
0.000803571
0.000687475
0.00054745
0.000395654
0.00025239
0.000137563
6.13762e-05
2.10696e-05
5.07609e-06
7.51087e-07
5.6878e-08
1.76016e-09
1.76216e-11
3.29427e-13
2.88086e-13
2.8867e-13
2.9019e-13
2.91431e-13
2.91305e-13
2.89283e-13
2.83716e-13
2.74776e-13
2.64074e-13
2.53257e-13
2.43233e-13
2.34182e-13
2.25858e-13
2.17881e-13
2.09926e-13
2.01812e-13
1.93503e-13
1.85059e-13
1.76591e-13
1.68209e-13
1.59983e-13
1.51941e-13
1.4407e-13
0.112295
0.112295
0.112295
0.112295
0.112295
0.112295
0.112295
0.112295
0.112295
0.112295
0.112295
0.112295
0.112295
0.112295
0.112295
0.112295
0.112295
0.112295
0.112295
0.112295
0.112295
0.112295
0.112295
0.112295
0.112295
0.112295
0.112295
0.112295
0.112295
0.112295
0.112295
0.112295
0.112295
0.112295
0.112295
0.112295
0.112295
0.112295
0.112295
0.112295
0.112295
0.112295
0.112295
0.112295
0.112295
0.112295
0.112295
0.112295
0.112295
0.112295
0.112295
0.112295
0.112295
0.112295
0.112295
0.112295
0.112295
0.112295
0.112295
0.112295
0.112295
0.112295
0.112295
0.112295
0.112295
0.112295
0.112295
0.112295
0.112295
0.112295
0.112295
0.112295
0.112295
0.112295
0.112295
0.112295
0.112295
0.112295
0.112295
0.112295
0.112295
0.112295
0.112295
0.112295
0.112295
0.112295
0.112295
0.112295
0.112295
0.112295
0.112295
0.112295
0.112295
0.112295
0.112295
0.112295
0.112295
0.112295
0.112295
0.112295
0.112295
0.112295
0.112295
0.112295
0.112295
0.112294
0.112287
0.112189
0.110035
0.0706007
0.0121269
0.00189053
0.00172685
0.00167341
0.00161725
0.00156102
0.0015059
0.0014517
0.00139832
0.00134576
0.0012942
0.00124398
0.00119551
0.00114901
0.00110405
0.00105911
0.00101117
0.00095549
0.000885683
0.000794781
0.000678145
0.000538072
0.000387076
0.000245496
0.000132843
5.87267e-05
1.99197e-05
4.7244e-06
6.85057e-07
5.0579e-08
1.51803e-09
1.47118e-11
3.17942e-13
2.8503e-13
2.85636e-13
2.87225e-13
2.88558e-13
2.88495e-13
2.86656e-13
2.81362e-13
2.72699e-13
2.6226e-13
2.51715e-13
2.41973e-13
2.33193e-13