/*--------------------------------*- C++ -*----------------------------------*\
  =========                 |
  \\      /  F ield         | OpenFOAM: The Open Source CFD Toolbox
   \\    /   O peration     | Website:  https://openfoam.org
    \\  /    A nd           | Version:  13
     \\/     M anipulation  |
\*---------------------------------------------------------------------------*/
FoamFile
{
    format      ascii;
    class       volScalarField;
    location    "0.0018";
    object      p;
}
// * * * * * * * * * * * * * * * * * * * * * * * * * * * * * * * * * * * * * //

dimensions      [1 -1 -2 0 0 0 0];

internalField   nonuniform List<scalar> 
33334
(
291001
291047
290972
291042
291043
291175
291311
291496
291773
292129
292563
293067
293651
294319
295079
295932
296878
297919
299058
300301
301658
303138
304757
306533
308490
310653
313045
315679
318555
321652
324935
328367
331905
335535
339225
342967
346734
350497
354224
357892
361479
364968
368338
371566
374629
377501
380163
382605
384805
386685
388204
389599
390866
392008
393054
394034
394980
395918
396869
397848
398858
399901
400981
402104
403287
404592
406074
407641
409349
411252
413415
415917
418843
422267
426259
430845
436023
441772
448073
454931
461841
469533
477706
486797
496075
506843
518414
530695
543688
557225
571317
585950
601230
617192
633912
651367
669747
689042
709406
730981
754041
778760
805543
834919
867567
904989
949068
1.00323e+06
1.07286e+06
1.16627e+06
1.17798e+06
700319
296178
202211
199918
200131
199697
199028
199229
199695
200193
200697
201220
201770
202358
202962
203585
204242
204909
205590
206297
207044
207862
208787
209857
211072
212337
213519
214622
215438
216163
217674
219122
219526
219615
219621
219528
219330
219054
218766
218472
218178
217888
217608
217340
217082
216830
216579
216327
216075
215825
215579
215337
215101
214869
214641
291047
291341
291241
291234
291206
291254
291375
291554
291782
292085
292471
292943
293507
294162
294911
295755
296691
297722
298848
300079
301423
302889
304494
306257
308198
310346
312723
315343
318204
321286
324550
327969
331489
335108
338785
342516
346276
350034
353759
357427
361019
364515
367895
371136
374211
377098
379776
382233
384441
386352
387930
389292
390562
391716
392769
393750
394692
395627
396574
397548
398551
399590
400666
401782
402959
404247
405698
407252
408927
410786
412894
415322
418149
421433
425263
429661
434661
440233
446389
453330
461631
470107
478971
488207
498391
508550
519983
532000
544697
558166
572405
587554
603452
620204
637723
656077
675222
695500
716768
739090
762795
788271
816169
846771
880933
919944
965433
1.01959e+06
1.08621e+06
1.1732e+06
1.18434e+06
708562
298562
199631
196367
196426
197088
198312
198998
199531
200059
200612
201190
201780
202389
203015
203651
204321
205003
205704
206436
207209
208048
208999
210110
211375
212704
213916
214998
215955
216850
217931
218856
219301
219426
219453
219395
219250
219030
218760
218472
218178
217889
217609
217341
217083
216830
216579
216327
216075
215825
215579
215337
215101
214869
214641
290972
291241
291132
291151
291225
291249
291326
291475
291703
292018
292421
292909
293485
294150
294907
295758
296701
297738
298871
300106
301453
302922
304529
306293
308236
310383
312759
315374
318229
321304
324563
327977
331497
335114
338795
342531
346295
350058
353788
357459
361050
364543
367919
371153
374221
377101
379772
382217
384415
386336
387931
389289
390546
391691
392740
393722
394670
395610
396564
397544
398555
399603
400688
401817
403011
404308
405749
407338
409058
410961
413116
415595
418471
421795
425643
430102
435289
441240
447794
454899
462232
470023
478505
487749
498376
508996
520198
532062
544654
557959
571968
586736
602212
618426
635378
653149
671798
691461
712256
734376
758113
783647
811576
842328
876623
915541
960912
1.01501e+06
1.08436e+06
1.17285e+06
1.17463e+06
694140
292012
199053
196672
197270
198068
198708
199202
199667
200155
200672
201216
201781
202368
202977
203595
204251
204920
205611
206332
207098
207935
208882
209973
211198
212463
213591
214559
215440
216260
217225
218260
218904
219148
219223
219212
219119
218943
218714
218454
218174
217889
217611
217342
217084
216831
216579
216327
216075
215825
215579
215337
215101
214869
214641
291042
291234
291151
291139
291182
291242
291358
291535
291767
292069
292456
292930
293494
294149
294898
295744
296683
297717
298848
300081
301427
302897
304507
306275
308223
310375
312754
315373
318232
321311
324574
327991
331516
335136
338822
342562
346330
350098
353833
357510
361108
364609
367992
371235
374311
377198
379874
382321
384531
386472
388079
389445
390701
391845
392895
393878
394826
395766
396720
397699
398709
399754
400836
401963
403153
404441
405877
407453
409169
411076
413239
415729
418619
421969
425852
430310
435325
440885
447062
453888
461236
469402
478383
487943
498270
508997
520244
532187
544828
558139
572109
586782
602189
618353
635294
653061
671754
691453
712360
734652
758502
784265
812294
843131
877475
916235
961292
1.01533e+06
1.08427e+06
1.17479e+06
1.16699e+06
680270
284671
198670
196866
197453
198024
198506
198946
199400
199885
200397
200934
201496
202077
202685
203298
203950
204608
205294
206007
206763
207591
208529
209611
210826
212080
213192
214119
214979
215795
216516
217473
218253
218689
218885
218951
218927
218815
218633
218411
218158
217887
217612
217345
217086
216832
216580
216327
216075
215825
215579
215337
215101
214869
214641
291043
291206
291225
291182
291185
291231
291328
291506
291745
292054
292442
292913
293473
294124
294869
295712
296648
297678
298804
300034
301378
302848
304458
306228
308177
310331
312713
315336
318197
321278
324542
327960
331486
335108
338798
342543
346317
350090
353831
357512
361115
364619
368006
371252
374332
377223
379902
382354
384580
386541
388148
389526
390783
391927
392978
393965
394917
395862
396820
397803
398818
399870
400959
402092
403285
404578
406020
407593
409310
411224
413396
415887
418760
422071
425884
430240
435204
440794
447064
453994
461562
469806
478796
488381
498481
509255
520548
532508
545113
558380
572326
586985
602422
618640
635682
653586
672453
692358
713514
736061
760109
786063
814141
844923
879067
917599
962352
1.01661e+06
1.08557e+06
1.17714e+06
1.15421e+06
660768
276278
198427
196984
197471
197930
198349
198776
199230
199712
200218
200744
201293
201857
202447
203046
203673
204313
204982
205675
206410
207216
208128
209176
210349
211554
212610
213462
214251
215102
215698
216585
217414
218022
218401
218594
218662
218627
218504
218333
218118
217872
217610
217347
217089
216834
216581
216327
216075
215825
215579
215337
215101
214869
214641
291175
291254
291249
291242
291231
291278
291371
291546
291784
292091
292473
292940
293495
294142
294883
295720
296649
297672
298791
300014
301353
302819
304427
306195
308143
310296
312677
315298
318157
321236
324496
327911
331437
335059
338755
342507
346290
350074
353825
357517
361128
364640
368035
371287
374374
377269
379953
382414
384655
386626
388236
389622
390880
392025
393078
394068
395024
395972
396934
397922
398944
400003
401099
402238
403436
404736
406176
407748
409467
411390
413567
416060
418929
422222
425995
430297
435197
440745
447003
453973
461666
469996
479008
488631
498738
509560
520928
532946
545589
558900
572894
587605
603112
619423
636606
654690
673755
693868
715186
737839
761888
787710
815539
846061
879937
918354
963154
1.01783e+06
1.08783e+06
1.18011e+06
1.1395e+06
638411
267043
197975
196838
197255
197662
198061
198483
198932
199405
199899
200410
200945
201495
202067
202653
203254
203879
204527
205199
205911
206691
207573
208586
209721
210877
211876
212655
213351
214215
214775
215633
216472
217178
217738
218109
218311
218372
218323
218207
218042
217834
217597
217346
217091
216837
216583
216329
216075
215825
215579
215337
215100
214869
214641
291311
291375
291326
291358
291328
291371
291456
291623
291854
292153
292526
292984
293532
294173
294908
295737
296659
297675
298789
300008
301344
302807
304411
306175
308119
310267
312646
315264
318120
321196
324453
327865
331390
335014
338718
342480
346276
350073
353837
357537
361154
364670
368068
371324
374416
377317
380008
382480
384733
386712
388331
389725
390985
392133
393191
394185
395147
396100
397068
398062
399092
400158
401261
402405
403612
404918
406359
407933
409658
411591
413776
416273
419140
422426
426172
430424
435256
440737
446935
453873
461578
469966
479033
488744
498982
509892
521352
533450
546177
559580
573672
588480
604082
620479
637751
655920
675042
695173
716413
738930
762805
788385
815967
846306
880231
918925
964383
1.01967e+06
1.09102e+06
1.18377e+06
1.11865e+06
611725
257155
197386
196560
196944
197336
197730
198147
198586
199045
199524
200019
200535
201067
201616
202184
202755
203358
203979
204625
205309
206058
206905
207879
208968
210063
210996
211686
212313
213164
213747
214621
215474
216230
216909
217453
217830
218035
218078
218027
217920
217760
217560
217332
217090
216839
216586
216331
216077
215826
215579
215337
215100
214868
214641
291496
291554
291475
291535
291506
291546
291623
291771
291984
292267
292628
293076
293615
294247
294971
295790
296702
297709
298817
300031
301362
302821
304419
306176
308113
310256
312630
315245
318098
321170
324422
327829
331353
334979
338690
342462
346271
350080
353854
357561
361185
364707
368111
371375
374476
377387
380089
382573
384836
386819
388446
389847
391111
392262
393324
394323
395289
396248
397220
398221
399259
400332
401442
402593
403808
405121
406566
408143
409876
411817
414008
416510
419380
422666
426403
430631
435415
440828
446945
453804
461437
469810
478899
488674
499038
510043
521599
533782
546599
560090
574270
589162
604821
621238
638492
656613
675648
695651
716691
739005
762734
788208
815812
846240
880498
919624
965999
1.02236e+06
1.09509e+06
1.18885e+06
1.09113e+06
581027
247021
196678
196160
196541
196930
197318
197725
198150
198594
199056
199534
200030
200541
201067
201612
202154
202731
203323
203940
204593
205308
206118
207049
208088
209113
209982
210579
211180
211991
212621
213545
214433
215225
215973
216641
217181
217567
217756
217787
217745
217642
217488
217296
217077
216839
216589
216334
216079
215827
215580
215337
215100
214868
214641
291773
291782
291703
291767
291745
291784
291854
291984
292179
292445
292792
293227
293753
294371
295081
295885
296784
297781
298880
300087
301412
302863
304452
306199
308129
310265
312635
315247
318095
321163
324409
327811
331332
334958
338676
342458
346279
350100
353884
357600
361231
364760
368172
371445
374555
377475
380188
382682
384954
386941
388577
389986
391253
392408
393474
394480
395451
396415
397393
398402
399448
400529
401645
402801
404026
405347
406797
408381
410122
412072
414268
416776
419649
422939
426678
430903
435664
441025
447056
453813
461336
469626
478666
488427
498843
509906
521562
533836
546724
560253
574461
589368
605012
621374
638533
656532
675434
695305
716211
738426
762173
787749
815663
846485
881281
921095
968123
1.0259e+06
1.10007e+06
1.1943e+06
1.05603e+06
547092
236775
195906
195665
196052
196433
196811
197206
197618
198046
198491
198949
199425
199915
200416
200936
201450
201996
202557
203144
203764
204443
205213
206100
207085
208037
208845
209365
209966
210746
211420
212407
213343
214174
214969
215717
216379
216926
217305
217476
217511
217472
217372
217226
217042
216827
216588
216337
216083
215830
215581
215338
215100
214868
214641
292129
292085
292018
292069
292054
292091
292153
292267
292445
292695
293026
293445
293952
294552
295244
296031
296916
297902
298992
300191
301506
302947
304524
306259
308177
310305
312670
315277
318120
321182
324420
327815
331332
334958
338683
342474
346305
350136
353930
357654
361293
364829
368249
371531
374651
377582
380306
382811
385092
387083
388729
390145
391416
392575
393646
394657
395634
396604
397589
398607
399661
400748
401871
403031
404264
405592
407049
408641
410390
412349
414550
417063
419939
423233
426979
431215
435977
441316
447283
453943
461345
469513
478440
488104
498471
509515
521197
533505
546416
559940
574123
588998
604586
620879
637945
655838
674658
694495
715448
737794
761787
787702
816087
847471
882763
923348
971130
1.02996e+06
1.10619e+06
1.19845e+06
1.01422e+06
508877
226987
195092
195063
195452
195823
196192
196575
196974
197387
197815
198255
198710
199178
199654
200148
200637
201149
201679
202235
202821
203463
204192
205033
205962
206853
207603
208081
208694
209454
210166
211209
212196
213074
213913
214717
215465
216132
216680
217040
217205
217245
217207
217113
216974
216793
216577
216337
216086
215833
215584
215340
215101
214868
214641
292563
292471
292421
292456
292442
292473
292526
292628
292792
293026
293339
293738
294223
294801
295470
296238
297107
298079
299157
300345
301648
303075
304637
306358
308265
310384
312742
315344
318180
321233
324459
327843
331355
334981
338711
342510
346353
350193
353996
357728
361374
364918
368348
371638
374767
377708
380443
382959
385248
387244
388900
390324
391599
392763
393839
394856
395840
396820
397813
398841
399902
400994
402120
403283
404523
405858
407321
408920
410678
412645
414851
417371
420249
423545
427299
431549
436326
441669
447605
454199
461495
469532
478313
487829
498071
509021
520640
532907
545778
559257
573391
588217
603760
620029
637078
654975
673865
693824
715013
737693
762057
788412
817273
849187
885061
926208
974884
1.03496e+06
1.11269e+06
1.20397e+06
960968
468809
217744
194218
194338
194724
195086
195446
195820
196207
196606
197018
197441
197876
198323
198776
199245
199708
200188
200687
201212
201764
202370
203060
203858
204736
205584
206286
206749
207385
208136
208874
209961
210992
211919
212805
213659
214471
215226
215898
216432
216779
216948
216988
216952
216863
216726
216544
216326
216086
215836
215588
215343
215103
214869
214641
293067
292943
292909
292930
292913
292940
292984
293076
293227
293445
293738
294112
294571
295123
295769
296517
297368
298324
299388
300560
301847
303258
304804
306510
308406
310517
312868
315462
318289
321330
324542
327913
331415
335038
338770
342576
346426
350274
354084
357824
361479
365031
368469
371766
374903
377853
380597
383125
385423
387426
389092
390525
391804
392973
394055
395080
396072
397062
398065
399103
400168
401265
402391
403557
404804
406143
407613
409218
410982
412958
415170
417696
420577
423873
427632
431893
436685
442045
447980
454546
461775
469707
478355
487724
497817
508633
520134
532302
545098
558519
572611
587412
602957
619271
636398
654431
673519
693722
715234
738279
763060
789763
819051
851489
887721
929589
979112
1.04027e+06
1.12042e+06
1.20511e+06
905519
426445
209429
193259
193475
193856
194210
194563
194928
195305
195693
196091
196498
196915
197343
197774
198220
198660
199110
199582
200078
200600
201175
201831
202596
203437
204259
204926
205389
206052
206799
207558
208673
209738
210711
211644
212547
213414
214236
214998
215663
216184
216531
216699
216739
216705
216618
216479
216294
216075
215837
215591
215346
215106
214871
214642
293651
293507
293485
293494
293473
293495
293532
293615
293753
293952
294223
294571
295003
295528
296150
296875
297706
298642
299686
300839
302105
303496
305024
306716
308600
310703
313046
315633
318447
321474
324669
328024
331516
335133
338866
342676
346532
350387
354204
357952
361615
365175
368618
371920
375063
378020
380774
383312
385621
387629
389306
390747
392032
393206
394295
395329
396332
397334
398349
399396
400466
401565
402691
403860
405111
406452
407926
409535
411304
413287
415504
418037
420919
424214
427975
432239
437040
442418
448364
454932
462141
470013
478574
487838
497805
508498
519874
531933
544655
558036
572122
586945
602547
618961
636234
654474
673812
694269
716079
739438
764515
791537
821186
853960
890734
933108
983551
1.04627e+06
1.12874e+06
1.20409e+06
842183
384425
202549
192193
192469
192843
193189
193536
193895
194263
194640
195028
195421
195824
196235
196649
197075
197495
197921
198371
198845
199344
199895
200530
201273
202096
202903
203545
204015
204702
205445
206224
207356
208445
209453
210430
211381
212299
213179
214011
214772
215429
215946
216295
216459
216496
216463
216373
216230
216044
215827
215591
215349
215110
214874
214643
294319
294162
294150
294149
294124
294142
294173
294247
294371
294552
294801
295123
295528
296028
296625
297327
298134
299046
300066
301194
302435
303804
305313
306989
308862
310955
313290
315866
318665
321673
324849
328186
331664
335273
339003
342814
346674
350534
354358
358113
361784
365349
368797
372102
375249
378212
380976
383524
385841
387856
389543
390991
392283
393464
394560
395603
396618
397634
398661
399718
400790
401892
403017
404189
405443
406784
408261
409871
411644
413632
415854
418393
421274
424566
428324
432582
437381
442771
448731
455317
462535
470387
478913
488128
498019
508639
519928
531906
544584
557951
572064
586943
602635
619172
636606
655040
674589
695260
717305
740870
766138
793467
823372
856484
893692
936752
988457
1.05253e+06
1.13786e+06
1.19283e+06
781163
340531
197117
191011
191320
191687
192027
192369
192722
193085
193455
193834
194218
194610
195011
195412
195825
196231
196639
197075
197535
198020
198558
199182
199917
200732
201522
202153
202633
203341
204079
204875
206017
207119
208154
209168
210162
211129
212061
212952
213788
214548
215202
215721
216067
216225
216259
216221
216127
215983
215797
215582
215350
215113
214878
214647
295079
294911
294907
294898
294869
294883
294908
294971
295081
295244
295470
295769
296150
296625
297196
297872
298653
299537
300528
301627
302840
304184
305674
307334
309196
311280
313604
316167
318948
321936
325089
328405
331867
335466
339192
343002
346864
350727
354557
358318
361994
365562
369012
372318
375469
378437
381208
383763
386086
388106
389800
391257
392556
393744
394849
395903
396931
397960
398999
400065
401140
402245
403367
404543
405799
407139
408619
410227
412002
413996
416220
418761
421639
424925
428674
432919
437710
443100
449066
455674
462912
470768
479299
488507
498371
508973
520220
532163
544832
558209
572373
587316
603099
619751
637325
655918
675598
696430
718671
742312
767766
795358
825472
858942
896658
940726
993304
1.05953e+06
1.14763e+06
1.17129e+06
716400
300323
192947
189711
190043
190404
190740
191080
191431
191790
192157
192532
192912
193299
193694
194089
194495
194893
195293
195722
196176
196656
197189
197812
198543
199352
200128
200758
201245
201969
202703
203514
204660
205770
206823
207865
208896
209906
210886
211830
212729
213569
214330
214987
215506
215845
215995
216022
215979
215882
215737
215553
215342
215114
214881
214651
295932
295755
295758
295744
295712
295720
295737
295790
295885
296031
296238
296517
296875
297327
297872
298520
299270
300123
301080
302147
303330
304647
306115
307759
309609
311682
313993
316541
319300
322264
325392
328686
332129
335715
339434
343241
347103
350969
354802
358568
362247
365818
369268
372575
375730
378702
381478
384037
386363
388384
390085
391549
392854
394048
395162
396225
397265
398306
399355
400427
401505
402614
403737
404919
406176
407517
409000
410605
412382
414377
416600
419139
422009
425287
429022
433250
438027
443407
449368
455988
463243
471115
479671
488894
498764
509380
520617
532564
545250
558650
572870
587858
603723
620455
638122
656836
676599
697586
719936
743657
769340
797114
827568
861358
899894
944780
998575
1.06762e+06
1.15805e+06
1.13238e+06
646064
265467
189796
188319
188669
189025
189361
189704
190056
190416
190784
191160
191540
191927
192322
192716
193121
193516
193915
194343
194797
195277
195811
196433
197165
197972
198742
199365
199853
200589
201317
202141
203290
204402
205467
206528
207587
208633
209657
210650
211604
212511
213357
214122
214782
215297
215627
215765
215783
215737
215638
215494
215314
215106
214882
214654
296878
296691
296701
296683
296648
296649
296659
296702
296784
296916
297107
297368
297706
298134
298653
299270
299988
300805
301727
302760
303911
305201
306647
308274
310110
312170
314466
316994
319729
322665
325766
329034
332457
336028
339737
343539
347398
351264
355098
358866
362545
366116
369566
372875
376031
379005
381784
384342
386667
388688
390393
391864
393174
394376
395500
396572
397624
398673
399731
400808
401889
403003
404127
405316
406571
407914
409399
410999
412776
414771
416990
419523
422384
425649
429366
433576
438337
443698
449648
456267
463525
471412
479994
489235
499128
509768
521009
532986
545693
559122
573389
588403
604349
621124
638881
657668
677486
698622
721015
744949
770805
798853
829650
863911
903382
948842
1.00492e+06
1.07661e+06
1.16824e+06
1.0712e+06
570405
237305
187365
186871
187237
187592
187933
188281
188639
189004
189377
189757
190141
190532
190930
191327
191734
192131
192532
192962
193417
193899
194435
195061
195791
196598
197358
197970
198461
199203
199923
200759
201909
203020
204091
205164
206243
207318
208378
209415
210420
211385
212301
213154
213925
214583
215090
215407
215533
215545
215497
215398
215256
215079
214875
214655
297919
297722
297738
297717
297678
297672
297675
297709
297781
297902
298079
298324
298642
299046
299537
300123
300805
301587
302473
303470
304590
305852
307277
308887
310708
312753
315030
317534
320240
323145
326215
329456
332857
336411
340108
343902
347756
351619
355451
359217
362895
366465
369915
373224
376381
379355
382132
384687
387008
389025
390733
392209
393525
394735
395867
396948
398008
399062
400123
401200
402281
403400
404527
405722
406976
408325
409814
411411
413190
415183
417394
419918
422767
426011
429706
433898
438638
443977
449912
456518
463764
471660
480254
489505
499425
510084
521339
533356
546080
559547
573847
588886
604904
621699
639546
658353
678240
699489
721961
746204
772175
800637
831766
866827
906931
953713
1.01194e+06
1.08646e+06
1.17655e+06
987837
491943
215737
185398
185405
185790
186147
186496
186853
187219
187592
187972
188358
188748
189145
189547
189949
190359
190758
191163
191594
192051
192534
193072
193699
194431
195237
195982
196580
197068
197812
198525
199371
200519
201626
202698
203778
204870
205966
207057
208131
209180
210197
211174
212101
212962
213734
214387
214883
215185
215300
215309
215260
215163
215023
214848
214648
299058
298848
298871
298848
298804
298791
298789
298817
298880
298992
299157
299388
299686
300066
300528
301080
301727
302473
303323
304286
305374
306611
308014
309606
311411
313438
315690
318166
320837
323707
326744
329956
333334
336869
340552
344336
348182
352038
355865
359627
363301
366868
370316
373623
376777
379746
382518
385066
387380
389393
391103
392586
393910
395129
396272
397362
398429
399483
400543
401614
402695
403816
404949
406151
407403
408760
410251
411844
413623
415608
417806
420317
423149
426370
430041
434217
438934
444249
450170
456750
463975
471873
480460
489710
499655
510318
521594
533647
546381
559897
574214
589294
605362
622172
640104
658923
678946
700261
722891
747408
773571
802502
833965
869999
910598
959446
1.01979e+06
1.09781e+06
1.18108e+06
890339
417522
199873
183727
183959
184356
184720
185080
185448
185823
186205
186593
186986
187383
187785
188192
188597
189010
189410
189817
190249
190705
191189
191728
192357
193098
193888
194615
195196
195680
196422
197124
197978
199122
200221
201292
202375
203475
204586
205699
206803
207890
208952
209982
210972
211910
212776
213546
214190
214673
214961
215070
215077
215028
214932
214794
214622
300301
300079
300106
300081
300034
300014
300008
300031
300087
300191
300345
300560
300839
301194
301627
302147
302760
303470
304286
305218
306278
307490
308873
310447
312233
314236
316458
318898
321530
324361
327362
330544
333896
337411
341078
344849
348684
352530
356348
360102
363769
367331
370773
374075
377222
380183
382947
385486
387792
389800
391514
393005
394339
395570
396722
397820
398888
399936
400988
402046
403124
404246
405385
406595
407845
409209
410701
412292
414073
416050
418234
420730
423544
426737
430385
434542
439229
444515
450419
456966
464166
472059
480624
489866
499824
510481
521787
533862
546604
560174
574504
589652
605740
622598
640597
659456
679635
701005
723872
748580
775084
804404
836398
873309
914917
965689
1.02852e+06
1.11101e+06
1.17459e+06
791761
348192
189704
182221
182555
182960
183332
183704
184083
184469
184860
185255
185655
186056
186462
186872
187279
187693
188092
188499
188930
189385
189867
190406
191034
191771
192548
193255
193817
194295
195035
195725
196583
197718
198808
199876
200959
202062
203182
204310
205437
206555
207656
208732
209778
210781
211726
212592
213356
213990
214460
214739
214843
214850
214800
214705
214570
301658
301423
301453
301427
301378
301353
301344
301362
301412
301506
301648
301847
302105
302435
302840
303330
303911
304590
305374
306278
307313
308504
309867
311420
313181
315154
317338
319736
322323
325112
328075
331225
334553
338048
341697
345452
349272
353105
356909
360652
364308
367860
371291
374582
377717
380667
383421
385952
388250
390256
391976
393479
394825
396069
397230
398333
399398
400435
401473
402515
403589
404709
405856
407070
408320
409690
411179
412766
414547
416508
418674
421151
423943
427108
430730
434866
439521
444779
450661
457172
464348
472226
480764
490002
499958
510603
521945
534021
546779
560398
574744
589976
606064
623012
641055
660019
680342
701825
724958
749834
776808
806444
839204
876845
919905
972498
1.03834e+06
1.12542e+06
1.14529e+06
697512
287630
183729
180814
181201
181612
181994
182378
182768
183163
183561
183963
184368
184773
185182
185593
185999
186413
186808
187214
187642
188094
188573
189109
189730
190459
191222
191910
192450
192920
193653
194327
195187
196311
197390
198452
199531
200635
201759
202897
204040
205182
206314
207430
208523
209583
210596
211545
212407
213164
213788
214248
214519
214620
214626
214577
214483
303138
302889
302922
302897
302848
302819
302807
302821
302863
302947
303075
303258
303496
303804
304184
304647
305201
305852
306611
307490
308504
309673
311014
312542
314270
316204
318341
320689
323227
325969
328894
332014
335318
338792
342422
346158
349961
353776
357563
361290
364930
368467
371882
375158
378279
381216
383960
386481
388771
390776
392504
394018
395374
396627
397791
398892
399948
400970
401992
403019
404089
405205
406359
407573
408823
410196
411677
413259
415034
416977
419128
421587
424357
427497
431096
435204
439824
445051
450900
457372
464526
472377
480890
490126
500068
510701
522076
534142
546932
560587
574962
590276
606374
623453
641535
660676
681103
702772
726155
751231
778717
808748
842415
880900
925640
980207
1.04985e+06
1.14005e+06
1.08468e+06
598143
242033
180300
179482
179905
180320
180713
181109
181509
181912
182317
182723
183131
183538
183947
184357
184761
185171
185561
185964
186387
186833
187307
187837
188454
189171
189916
190580
191096
191556
192280
192936
193793
194903
195968
197021
198095
199196
200320
201463
202617
203776
204933
206081
207214
208323
209396
210414
211362
212220
212969
213586
214038
214304
214402
214406
214357
304757
304494
304529
304507
304458
304427
304411
304419
304452
304524
304637
304804
305024
305313
305674
306115
306647
307277
308014
308873
309867
311014
312330
313825
315513
317398
319480
321772
324256
326951
329838
332927
336207
339660
343269
346984
350765
354558
358323
362027
365646
369160
372555
375812
378916
381840
384572
387085
389370
391376
393112
394636
396000
397256
398418
399511
400552
401558
402562
403576
404641
405752
406908
408118
409366
410737
412204
413779
415543
417466
419602
422040
424783
427898
431470
435540
440125
445319
451129
457567
464700
472520
481016
490253
500176
510804
522203
534255
547091
560765
575189
590568
606707
623914
642040
661378
681904
703835
727451
752850
780836
811395
846041
885536
932130
989083
1.06377e+06
1.15305e+06
985587
495663
210989
178191
178218
178669
179087
179491
179897
180306
180716
181126
181536
181946
182353
182761
183168
183568
183974
184358
184755
185170
185608
186073
186594
187210
187912
188633
189270
189756
190204
190915
191553
192405
193497
194545
195588
196653
197748
198870
200013
201173
202343
203517
204691
205857
207008
208130
209210
210231
211176
212030
212775
213385
213831
214092
214188
214190
306533
306257
306293
306275
306228
306195
306175
306176
306199
306259
306358
306510
306716
306989
307334
307759
308274
308887
309606
310447
311420
312542
313825
315279
316916
318745
320766
322998
325427
328076
330925
333986
337242
340674
344261
347952
351708
355474
359212
362889
366480
369969
373341
376579
379666
382576
385296
387799
390077
392080
393819
395343
396702
397950
399096
400171
401192
402182
403172
404179
405244
406351
407510
408710
409957
411319
412766
414326
416072
417970
420090
422506
425220
428312
431858
435889
440441
445602
451368
457775
464884
472668
481152
490385
500286
510914
522322
534375
547269
560958
575445
590864
607069
624385
642600
662132
682816
705021
728910
754662
783130
814384
850007
890809
939561
999423
1.0798e+06
1.15994e+06
864158
400827
191314
176716
177040
177505
177929
178344
178759
179175
179590
180002
180413
180822
181226
181630
182031
182426
182824
183197
183587
183993
184420
184873
185384
185991
186678
187373
187980
188436
188869
189564
190181
191024
192095
193124
194153
195207
196293
197409
198550
199711
200886
202073
203265
204458
205642
206807
207939
209023
210043
210987
211839
212581
213187
213628
213884
213977
308490
308198
308236
308223
308177
308143
308119
308113
308129
308177
308265
308406
308600
308862
309196
309609
310110
310708
311411
312233
313181
314270
315513
316916
318494
320260
322217
324388
326763
329367
332180
335212
338444
341853
345415
349079
352807
356544
360251
363896
367457
370919
374266
377484
380554
383448
386153
388644
390911
392907
394638
396152
397497
398726
399848
400900
401899
402875
403856
404862
405927
407033
408186
409370
410608
411951
413370
414910
416632
418504
420608
422998
425682
428746
432256
436243
440758
445883
451605
457985
465071
472826
481306
490530
500419
511053
522463
534535
547485
561184
575741
591182
607487
624896
643241
662936
683806
706275
730476
756729
785715
817835
854602
896819
948255
1.01145e+06
1.09745e+06
1.14733e+06
746459
317452
180768
175509
175937
176407
176838
177262
177685
178106
178524
178939
179350
179757
180159
180559
180955
181342
181732
182093
182473
182866
183279
183720
184214
184806
185477
186144
186718
187139
187556
188229
188824
189655
190700
191707
192719
193759