/*--------------------------------*- C++ -*----------------------------------*\
  =========                 |
  \\      /  F ield         | OpenFOAM: The Open Source CFD Toolbox
   \\    /   O peration     | Website:  https://openfoam.org
    \\  /    A nd           | Version:  13
     \\/     M anipulation  |
\*---------------------------------------------------------------------------*/
FoamFile
{
    format      ascii;
    class       surfaceScalarField;
    location    "0.0018";
    object      phi;
}
// * * * * * * * * * * * * * * * * * * * * * * * * * * * * * * * * * * * * * //

dimensions      [1 0 -1 0 0 0 0];

internalField   nonuniform List<scalar> 
66301
(
0.00279845
0.00279845
0.00626035
0.00221433
0.00937844
0.00266056
0.0122361
0.00307571
0.0148412
0.00364195
0.0176467
0.00380233
0.0208109
0.00385967
0.0241846
0.00406781
0.0279417
0.00414507
0.0322785
0.00403225
0.037205
0.00389746
0.0425807
0.00389238
0.048267
0.00401804
0.0541838
0.00421317
0.0602967
0.00442431
0.0665823
0.0046352
0.0730045
0.00484575
0.0795389
0.00504597
0.0861646
0.00523716
0.0928612
0.00542257
0.0995933
0.00561655
0.106307
0.00583171
0.112951
0.00605705
0.11947
0.00628124
0.125821
0.00648912
0.131979
0.0066595
0.137931
0.00679861
0.143672
0.00692299
0.149244
0.00702272
0.154706
0.00710495
0.160118
0.00718683
0.16555
0.00725002
0.171012
0.00733874
0.176559
0.00738997
0.182147
0.00748947
0.18776
0.00761376
0.193383
0.00776312
0.198968
0.00796031
0.204458
0.00819588
0.209816
0.00842231
0.215004
0.0086145
0.219966
0.00877378
0.224627
0.00891571
0.228894
0.00905105
0.232679
0.00917396
0.235917
0.00927841
0.238565
0.00936439
0.240617
0.00942921
0.241985
0.00945514
0.242459
0.00945146
0.242398
0.00948172
0.242025
0.00960001
0.241289
0.00967845
0.240293
0.00970933
0.239144
0.00971671
0.237924
0.00973811
0.236672
0.00981181
0.235402
0.0099491
0.234129
0.0101189
0.232887
0.0102762
0.231702
0.0104049
0.230588
0.0105196
0.229565
0.0106251
0.228671
0.0107185
0.228013
0.0107965
0.227848
0.0108783
0.227944
0.0109508
0.228441
0.0109488
0.229426
0.0110018
0.231006
0.0111041
0.23329
0.011253
0.236376
0.0114474
0.240362
0.0116753
0.245328
0.0119569
0.251516
0.012161
0.259351
0.0121206
0.269176
0.0119195
0.280843
0.0121125
0.294059
0.0127276
0.309167
0.0125271
0.326823
0.0148916
0.347001
0.0131079
0.367151
0.0141181
0.389677
0.0129522
0.410087
0.0173725
0.430529
0.0191436
0.452836
0.0196584
0.477174
0.0197935
0.503322
0.0201276
0.531519
0.0203728
0.562371
0.0200775
0.596093
0.0195608
0.632637
0.0191539
0.671795
0.019117
0.713687
0.0191353
0.758148
0.0195237
0.805538
0.0198532
0.856214
0.0201983
0.910612
0.0206726
0.9692
0.021265
1.03301
0.0212755
1.10294
0.0213834
1.1804
0.0216522
1.26789
0.0216909
1.36822
0.0224214
1.48679
0.0234337
1.6323
0.025195
1.82052
0.0279403
2.0766
0.0342941
2.43985
0.040491
2.62829
0.0382434
1.98308
0.037366
0.447403
0.0203822
0.341049
0.0114829
0.338741
0.010629
0.337292
0.00746877
0.333016
0.00234064
0.328841
0.0096364
0.328005
0.00974863
0.327549
0.00967467
0.326884
0.00952939
0.326148
0.00936053
0.325457
0.00919619
0.324833
0.00906099
0.324333
0.00885956
0.323978
0.0086317
0.323923
0.0084416
0.324144
0.00830559
0.325099
0.00815203
0.327506
0.00794566
0.332512
0.0077195
0.341881
0.00748441
0.358142
0.00725391
0.384616
0.00709625
0.425291
0.00701632
0.483845
0.00696446
0.560757
0.00686065
0.649034
0.00642217
0.731591
0.00582537
0.788345
0.00515757
0.819577
0.00464672
0.837437
0.00493007
0.84436
0.00226754
0.844843
0.00167553
0.844587
0.00136845
0.843432
0.000942174
0.841521
0.000537754
0.839126
0.000219567
0.836489
0.000172204
0.83405
5.05817e-05
0.831798
-3.92044e-06
0.829651
-1.76942e-05
0.827538
-2.09946e-05
0.825416
-1.78931e-05
0.823276
-1.40683e-05
0.821135
-1.05604e-05
0.819024
-8.16261e-06
0.816966
-7.00345e-06
0.814972
-6.68352e-06
0.81304
-6.77845e-06
0.811159
-6.92775e-06
0.809318
-7.00621e-06
0.807506
-7.00751e-06
0.805715
-6.97664e-06
0.803945
-6.93526e-06
-6.89161e-06
0.00221433
0.00626035
0.00512135
0.00512135
0.00867306
0.00508295
0.012316
0.0056382
0.0161231
0.00629221
0.020188
0.00648261
0.0245477
0.00663506
0.0291722
0.00696916
0.0339487
0.00730393
0.0388861
0.0074586
0.0440189
0.00756593
0.0493759
0.00777299
0.0549863
0.008078
0.060863
0.00843029
0.0670115
0.00878075
0.0734257
0.0091112
0.0800636
0.00944947
0.086884
0.00978393
0.0938492
0.0101149
0.100936
0.0104344
0.108122
0.0107564
0.115362
0.01111
0.122612
0.0114771
0.12982
0.01184
0.136922
0.0121936
0.143864
0.0125043
0.150622
0.0127677
0.157186
0.0130074
0.163581
0.013211
0.169842
0.0134028
0.175995
0.0136274
0.182116
0.0138063
0.188193
0.0140602
0.19428
0.014237
0.20032
0.0145223
0.206292
0.014862
0.212212
0.0152217
0.218079
0.0156319
0.223873
0.0160827
0.229574
0.0164971
0.235155
0.0168346
0.240563
0.0171074
0.245725
0.0173438
0.25055
0.0175651
0.254935
0.0177787
0.25878
0.0179801
0.262017
0.0181653
0.264611
0.0183054
0.266483
0.0184109
0.267473
0.0185265
0.267586
0.0187146
0.267493
0.0188916
0.267052
0.0190586
0.266306
0.0191686
0.265323
0.0192569
0.264167
0.0193892
0.262906
0.0196021
0.261596
0.0198979
0.260285
0.0202319
0.259009
0.0205383
0.257792
0.0207995
0.256652
0.021032
0.255599
0.0212446
0.254656
0.0214492
0.2539
0.0216442
0.25351
0.0218251
0.253508
0.0219897
0.25368
0.0221386
0.25423
0.0223263
0.255308
0.0225688
0.257047
0.0228765
0.259574
0.023244
0.263001
0.0236664
0.26724
0.0243764
0.271993
0.0254564
0.276756
0.0269648
0.281895
0.0281418
0.288721
0.0285363
0.298329
0.0283964
0.310346
0.0284708
0.326271
0.0277893
0.344914
0.0260503
0.365885
0.0267146
0.388303
0.0262951
0.416127
0.0283987
0.445378
0.0299636
0.474579
0.0320859
0.50444
0.033427
0.535762
0.0345334
0.569158
0.0351291
0.604546
0.0353947
0.642208
0.0353115
0.681986
0.0356432
0.724121
0.0363277
0.768775
0.036947
0.816208
0.0377058
0.866216
0.0386832
0.919475
0.0393257
0.976503
0.0397141
1.03774
0.0403811
1.10406
0.0410751
1.17622
0.0422962
1.2562
0.0439112
1.3464
0.0452086
1.44969
0.0475314
1.57036
0.0504387
1.7149
0.053822
1.89405
0.057014
2.12975
0.067726
2.46827
0.0778617
2.65804
0.0812692
2.03055
0.0611562
0.451273
0.0302577
0.334993
0.0186641
0.33324
0.0176899
0.333161
0.016965
0.334649
0.017532
0.337623
0.0194651
0.337639
0.0194271
0.337305
0.0191921
0.336964
0.0188955
0.336676
0.0185967
0.336374
0.0183106
0.336034
0.0180595
0.335703
0.0177252
0.335426
0.0173563
0.335394
0.0170045
0.335673
0.0167239
0.336635
0.0164824
0.338931
0.0161939
0.343695
0.0158784
0.352685
0.0155481
0.368374
0.0152889
0.394144
0.0151417
0.434193
0.0149612
0.492381
0.0146629
0.56919
0.0142142
0.657065
0.013388
0.739007
0.0124185
0.796029
0.0114025
0.825231
0.010234
0.83834
0.00869441
0.843234
0.00578659
0.843902
0.00379512
0.843713
0.00280545
0.842704
0.00202837
0.841024
0.00128786
0.838992
0.000692952
0.836707
0.000320582
0.834351
0.000109725
0.83209
1.71766e-05
0.829929
-1.5477e-05
0.827812
-2.93024e-05
0.825683
-2.68965e-05
0.823529
-1.80529e-05
0.821373
-1.18319e-05
0.81925
-8.15901e-06
0.817182
-6.54824e-06
0.815181
-6.1413e-06
0.813241
-6.33712e-06
0.811353
-6.55659e-06
0.809505
-6.70039e-06
0.807685
-6.64045e-06
0.805887
-6.59685e-06
0.804109
-6.53892e-06
-6.48153e-06
0.00266056
0.00937844
0.00508295
0.00867306
0.00812751
0.00812751
0.0112769
0.00879292
0.0149647
0.00915957
0.0189756
0.0093315
0.0232932
0.00951672
0.0278874
0.00996098
0.0326284
0.0105591
0.0374504
0.011054
0.0423789
0.0114861
0.0474906
0.0119381
0.0528585
0.0124086
0.0585167
0.0128833
0.0644766
0.0133381
0.070728
0.013762
0.0772239
0.0142127
0.0839208
0.0146675
0.0907789
0.0151246
0.0977714
0.0155654
0.104872
0.0160045
0.112038
0.0164821
0.119226
0.0169736
0.126388
0.0174585
0.133456
0.0179397
0.14038
0.0183746
0.147124
0.0187526
0.153673
0.0191081
0.160044
0.0194253
0.166268
0.0197448
0.172376
0.0201235
0.178435
0.0204414
0.184436
0.0208762
0.190409
0.0212175
0.196302
0.0217213
0.202116
0.0222899
0.20787
0.0228658
0.213579
0.0234803
0.219241
0.0241157
0.224846
0.0246798
0.230356
0.0251329
0.235711
0.0254991
0.240835
0.0258153
0.245634
0.0261119
0.250006
0.0264057
0.253852
0.0266945
0.257093
0.026968
0.259666
0.0271973
0.261514
0.0274083
0.262531
0.0276426
0.262689
0.0279278
0.262563
0.0281801
0.262119
0.0284275
0.261368
0.02863
0.260352
0.0288363
0.259134
0.0291126
0.257789
0.0294828
0.256392
0.0299396
0.255004
0.0304264
0.253667
0.030871
0.252403
0.0312577
0.251223
0.0316057
0.25013
0.0319323
0.249143
0.0322582
0.248333
0.0325773
0.247817
0.0328751
0.247684
0.0331743
0.247769
0.0335254
0.248199
0.0338632
0.249165
0.0342435
0.250836
0.0346871
0.253395
0.0351588
0.25705
0.0356163
0.261957
0.0363337
0.26838
0.0373071
0.276599
0.0386039
0.286572
0.0397975
0.297895
0.0407346
0.310404
0.0414579
0.324179
0.0423157
0.337945
0.042228
0.35307
0.0420871
0.370872
0.0426084
0.389962
0.0432477
0.413067
0.0432452
0.438557
0.0444739
0.466199
0.0463387
0.495888
0.0477811
0.527665
0.0490724
0.56133
0.0500445
0.596538
0.0510367
0.633416
0.0516042
0.672173
0.0524871
0.713246
0.053454
0.756935
0.0542843
0.803406
0.0552469
0.852738
0.0566483
0.905363
0.0576479
0.961602
0.0587136
1.02188
0.0606437
1.08725
0.0623861
1.15864
0.0649873
1.23788
0.0677541
1.32724
0.0703257
1.42969
0.0738214
1.54925
0.0781589
1.69288
0.0825033
1.87172
0.0870205
2.11475
0.0972485
2.46214
0.105536
2.64471
0.114215
1.96638
0.0967012
0.436121
0.0431917
0.331694
0.0288411
0.330745
0.028624
0.33126
0.029086
0.331818
0.0295477
0.331824
0.0294348
0.331357
0.0291058
0.330853
0.0286557
0.330457
0.0282022
0.330106
0.0277697
0.329778
0.0273488
0.329481
0.0269367
0.329221
0.0264612
0.329037
0.0259388
0.329041
0.0254428
0.329396
0.0249973
0.330435
0.0246618
0.332812
0.024278
0.337665
0.0238589
0.346757
0.0234175
0.362638
0.0230362
0.388772
0.0226919
0.429309
0.0222151
0.487946
0.021608
0.565065
0.0208465
0.653064
0.0196904
0.734851
0.0184997
0.792022
0.0170568
0.820933
0.0153881
0.833883
0.0126523
0.839935
0.0093819
0.841797
0.00645243
0.84191
0.00445059
0.841317
0.00317254
0.840057
0.00213251
0.838393
0.0012874
0.836352
0.000702874
0.834167
0.000333504
0.832034
0.000111701
0.829933
7.51225e-06
0.827825
-2.62704e-05
0.825695
-3.26198e-05
0.823538
-2.58896e-05
0.821379
-1.62962e-05
0.819252
-1.00936e-05
0.817183
-7.01154e-06
0.815181
-5.92922e-06
0.813241
-5.97795e-06
0.811353
-6.1016e-06
0.809505
-6.27066e-06
0.807685
-6.3468e-06
0.805887
-6.33567e-06
0.804109
-6.27398e-06
-6.2049e-06
0.00307571
0.0122361
0.0056382
0.012316
0.00879292
0.0112769
0.012054
0.012054
0.0154629
0.0124485
0.0189905
0.0127778
0.0227963
0.0130122
0.0270057
0.0134418
0.031547
0.01411
0.0363064
0.0147962
0.0412624
0.0154439
0.0464437
0.0160794
0.0518828
0.0166969
0.057593
0.0173051
0.0635806
0.0178809
0.0698426
0.0184163
0.0763401
0.0189894
0.0830373
0.0195703
0.0898948
0.0201569
0.0968828
0.0207231
0.103972
0.0212829
0.111124
0.021884
0.118297
0.022497
0.125447
0.0230974
0.13251
0.0236994
0.139428
0.0242575
0.146161
0.0247571
0.152686
0.0252435
0.159015
0.0256966
0.165177
0.0261685
0.171206
0.0267213
0.17717
0.027196
0.183069
0.0278198
0.188928
0.0283394
0.194714
0.0290573
0.200436
0.0298366
0.206117
0.0306083
0.211778
0.0313999
0.217422
0.0321879
0.223028
0.0328788
0.228545
0.0334407
0.233901
0.0339064
0.239021
0.0343124
0.243814
0.0346916
0.248184
0.0350661
0.252035
0.0354375
0.255282
0.0357933
0.257862
0.0361152
0.259738
0.036431
0.260782
0.0367827
0.260944
0.0371644
0.260786
0.0374935
0.26031
0.0378263
0.259527
0.0381293
0.258479
0.0384596
0.257228
0.0388787
0.255861
0.0393931
0.254466
0.0399842
0.253113
0.0405908
0.251839
0.0411466
0.250658
0.0416388
0.249569
0.0420916
0.248567
0.0425282
0.247668
0.0429714
0.246937
0.0434079
0.246501
0.0438327
0.246397
0.0443013
0.246557
0.0448222
0.247061
0.0453307
0.24806
0.0458846
0.249729
0.0465003
0.25225
0.0471247
0.255811
0.0477015
0.260539
0.0485391
0.266681
0.0495087
0.274516
0.0506141
0.28406
0.0517095
0.295062
0.0529528
0.307588
0.0541202
0.32178
0.0552499
0.336873
0.0561909
0.353289
0.0570119
0.371838
0.057852
0.39208
0.0590856
0.41436
0.0587917
0.438766
0.0601591
0.465562
0.0617253
0.49464
0.0631793
0.525848
0.064587
0.558984
0.0658388
0.593919
0.0672501
0.630721
0.0682681
0.669512
0.069634
0.7105
0.0710583
0.753855
0.0724024
0.799819
0.0739904
0.848789
0.0760062
0.901012
0.0778136
0.957044
0.0798332
1.01769
0.0825241
1.0836
0.0852431
1.15605
0.0887837
1.23639
0.0923653
1.32629
0.0961589
1.42891
0.10039
1.54843
0.105041
1.69174
0.109979
1.87247
0.11565
2.11941
0.124752
2.47248
0.137023
2.64978
0.148864
1.89929
0.125584
0.421684
0.0567281
0.331291
0.0400519
0.33047
0.0399465
0.331061
0.0400012
0.33111
0.0397247
0.330611
0.0391949
0.330047
0.0385922
0.329564
0.0380059
0.329154
0.0374197
0.328775
0.036851
0.328429
0.0362817
0.328128
0.0356992
0.327863
0.0350941
0.327665
0.0344384
0.327634
0.0337902
0.327991
0.0331683
0.32906
0.032709
0.331474
0.0322186
0.336379
0.0316833
0.345543
0.0311123
0.361538
0.030565
0.387829
0.0299719
0.428484
0.0292101
0.487099
0.0283868
0.564002
0.0274164
0.651466
0.0260379
0.732379
0.0246234
0.789006
0.0225354
0.816857
0.0200803
0.828656
0.0162552
0.834983
0.0129227
0.83828
0.00955344
0.839297
0.00669212
0.839243
0.00465071
0.838509
0.00319692
0.837302
0.00206403
0.835674
0.00125577
0.833779
0.000691395
0.831855
0.000311403
0.829887
9.58775e-05
0.827836
1.87919e-07
0.825713
-2.91854e-05
0.823554
-3.38765e-05
0.821389
-2.57898e-05
0.819257
-1.60662e-05
0.817184
-9.92902e-06
0.815181
-6.88051e-06
0.81324
-5.78197e-06
0.811352
-5.80917e-06
0.809504
-5.92035e-06
0.807685
-6.07852e-06
0.805887
-6.14473e-06
0.804109
-6.12899e-06
-6.07198e-06
0.00364195
0.0148412
0.00629221
0.0161231
0.00915957
0.0149647
0.0124485
0.0154629
0.0158793
0.0158793
0.0194481
0.0163378
0.0232101
0.0166743
0.027297
0.0171433
0.0317066
0.0178745
0.0364002
0.0186712
0.041374
0.0194341
0.046633
0.0201806
0.0521773
0.0209111
0.0579977
0.0216468
0.0640858
0.0223548
0.070432
0.0230202
0.0770022
0.0237351
0.0837615
0.0244558
0.0906713
0.0251805
0.0976976
0.0258815
0.10481
0.0265712
0.11197
0.0273031
0.119139
0.028044
0.126275
0.0287659
0.133313
0.0294947
0.140193
0.0301889
0.146872
0.0308295
0.153323
0.0314689
0.159554
0.0320874
0.165594
0.0327394
0.171482
0.0334878
0.177292
0.0341363
0.183035
0.034952
0.188742
0.0356468
0.194406
0.0365481
0.200051
0.0374907
0.205702
0.0384068
0.211381
0.0393206
0.217087
0.0402143
0.222776
0.0410093
0.228376
0.04168
0.233799
0.0422621
0.238961
0.0427834
0.243773
0.043274
0.248142
0.0437528
0.251973
0.0442233
0.255183
0.0446762
0.257728
0.0451025
0.259579
0.0455334
0.260572
0.0459927
0.260689
0.0464713
0.26045
0.0468991
0.259868
0.0473381
0.258968
0.0477578
0.257806
0.0482146
0.256459
0.0487608
0.255029
0.0493868
0.25361
0.0500704
0.252271
0.0507572
0.251039
0.0513963
0.249916
0.0519801
0.248894
0.052532
0.247959
0.0530736
0.247125
0.0536223
0.246465
0.0541651
0.246119
0.0547237
0.2461
0.0553349
0.246385
0.0560009
0.247051
0.0566558
0.24821
0.0573822
0.250039
0.0581628
0.252712
0.0589485
0.256396
0.0596784
0.261242
0.060656
0.267449
0.061664
0.275148
0.0627578
0.284462
0.0637993
0.295325
0.0651636
0.307808
0.0665201
0.321972
0.0679438
0.337819
0.0695114
0.355162
0.0710658
0.374283
0.0724111
0.395189
0.074063
0.417421
0.0744401
0.441676
0.0761198
0.468124
0.0777664
0.496715
0.0793721
0.527328
0.0810156
0.559923
0.0825743
0.594498
0.0843394
0.63105
0.0858417
0.669734
0.0877063
0.710682
0.0897019
0.754072
0.091697
0.800194
0.0940325
0.849457
0.0967477
0.902061
0.0994893
0.958551
0.102533
1.01975
0.106016
1.08612
0.109579
1.15894
0.113558
1.23941
0.117319
1.32914
0.121626
1.43129
0.126194
1.55052
0.130735
1.69389
0.136376
1.8759
0.143212
2.12485
0.152913
2.48089
0.170123
2.65277
0.182618
1.81593
0.152799
0.408633
0.0697214
0.332562
0.0511501
0.331625
0.0505646
0.331976
0.0501353
0.331593
0.0494819
0.330974
0.0487346
0.330402
0.0480024
0.329898
0.0472959
0.329431
0.0465803
0.328982
0.0458737
0.328551
0.0451577
0.328138
0.0444247
0.327752
0.0436849
0.327436
0.0428935
0.327276
0.0420824
0.327532
0.0412755
0.328533
0.0406373
0.330901
0.0400186
0.335776
0.0393475
0.344927
0.0386251
0.360927
0.0378832
0.387199
0.0370388
0.427742
0.0360395
0.486111
0.0350372
0.5626
0.0338386
0.649316
0.0322295
0.729094
0.0304734
0.784837
0.0278623
0.811983
0.0246189
0.822925
0.0198793
0.829125
0.0164172
0.833364
0.0128537
0.835612
0.00951767
0.836438
0.00671813
0.836412
0.00461561
0.835773
0.0030768
0.834655
0.00199058
0.833127
0.00122657
0.831481
0.000659471
0.829723
0.000291791
0.827802
8.65046e-05
0.82573
-4.47906e-06
0.823575
-3.14242e-05
0.821407
-3.61435e-05
0.819268
-2.69843e-05
0.817189
-1.64376e-05
0.815182
-9.93485e-06
0.81324
-6.82973e-06
0.811352
-5.75182e-06
0.809504
-5.73203e-06
0.807684
-5.80555e-06
0.805887
-5.92174e-06
0.804109
-5.99113e-06
-5.99636e-06
0.00380233
0.0176467
0.00648261
0.020188
0.0093315
0.0189756
0.0127778
0.0189905
0.0163378
0.0194481
0.0200214
0.0200214
0.0238504
0.0204952
0.0279421
0.0210336
0.032331
0.0218219
0.0370196
0.0226847
0.0420049
0.0235236
0.04728
0.0243602
0.0528341
0.0251984
0.0586561
0.0260594
0.0647363
0.0269042
0.0710654
0.0277049
0.0776147
0.0285629
0.0843545
0.0294222
0.091246
0.0302838
0.0982521
0.0311157
0.10534
0.0319316
0.112475
0.0327891
0.119615
0.033654
0.126719
0.0344924
0.133724
0.0353439
0.140566
0.0361772
0.1472
0.0369639
0.153601
0.0377634
0.159782
0.0385501
0.165779
0.0393772
0.171641
0.0403123
0.177436
0.0411278
0.183178
0.0421256
0.188893
0.0429873
0.194585
0.0440511
0.200276
0.0451353
0.205987
0.0461802
0.211736
0.0472047
0.217511
0.0482009
0.223255
0.0491121
0.228887
0.0499155
0.234318
0.0506415
0.239463
0.0513029
0.244239
0.0519248
0.24856
0.0525203
0.252336
0.0530977
0.255491
0.0536492
0.257997
0.0541787
0.259825
0.0547134
0.260771
0.0552665
0.260875
0.0558341
0.260595
0.0563658
0.259966
0.0569161
0.259018
0.0574599
0.257814
0.0580396
0.256444
0.0586956
0.255015
0.0594084
0.253617
0.0601622
0.252312
0.0609155
0.251114
0.0616374
0.250019
0.0623207
0.249011
0.0629816
0.248077
0.0636347
0.247238
0.0642883
0.246579
0.0649374
0.246244
0.0656124
0.246254
0.0663368
0.246609
0.0671208
0.247378
0.0678935
0.248664
0.0687694
0.25064
0.0696908
0.253466
0.0706294
0.257314
0.071511
0.262343
0.072623
0.268732
0.0736969
0.276547
0.0748586
0.285823
0.0759823
0.296557
0.0774896
0.308822
0.0790012
0.322661
0.0807104
0.338297
0.0826136
0.355596
0.0846861
0.374712
0.0864648
0.395755
0.0884833
0.418241
0.0897567
0.442758
0.0918455
0.469361
0.0938092
0.498024
0.0957531
0.528645
0.0978788
0.561239
0.0999015
0.595851
0.102161
0.632482
0.104263
0.671329
0.106679
0.71249
0.109325
0.756181
0.112094
0.802684
0.115158
0.852352
0.118504
0.905382
0.121879
0.962185
0.125482
1.02348
0.129238
1.08976
0.133141
1.16225
0.137083
1.2422
0.14081
1.33165
0.14504
1.43363
0.149814
1.5532
0.154898
1.69817
0.161314
1.88319
0.170164
2.13673
0.182509
2.49374
0.203511
2.66294
0.218846
1.71619
0.179078
0.393386
0.0812285
0.33168
0.0615177
0.330666
0.060556
0.330829
0.0597905
0.330296
0.0589502
0.329674
0.0580894
0.32912
0.05725
0.328613
0.0564126
0.328132
0.0555617
0.32767
0.0547089
0.327225
0.0538455
0.326802
0.0529639
0.326411
0.0520766
0.32609
0.0511464
0.325922
0.0501731
0.326162
0.0491857
0.327159
0.0483398
0.329537
0.047583
0.334424
0.0467712
0.343592
0.0458915
0.35961
0.0449502
0.385876
0.0438678
0.426349
0.0426581
0.484544
0.0414647
0.560623
0.040001
0.646494
0.0381386
0.724961
0.0359306
0.779465
0.0331319
0.806229
0.028983
0.816759
0.0235949
0.822813
0.0199424
0.827453
0.016259
0.830743
0.0126858
0.832753
0.00940246
0.833638
0.00661434
0.833726
0.00446289
0.833218
0.00294302
0.832154
0.00195034
0.830835
0.00118486
0.829361
0.000632095
0.827652
0.000278122
0.825703
7.87113e-05
0.823594
-9.35718e-06
0.821429
-3.42084e-05
0.819287
-3.83992e-05
0.817202
-2.83044e-05
0.815187
-1.71244e-05
0.813241
-1.00734e-05
0.811351
-6.80662e-06
0.809503
-5.78081e-06
0.807684
-5.64724e-06
0.805886
-5.65722e-06
0.804109
-5.81954e-06
-5.90519e-06
0.00385967
0.0208109
0.00663506
0.0245477
0.00951672
0.0232932
0.0130122
0.0227963
0.0166743
0.0232101
0.0204952
0.0238504
0.0244612
0.0244612
0.0286307
0.025097
0.0330492
0.0259518
0.0377525
0.0268633
0.0427434
0.0277667
0.0480156
0.0286871
0.053561
0.0296257
0.0593748
0.0305979
0.0654491
0.0315636
0.071774
0.0324868
0.0783206
0.0334717
0.0850615
0.0344542
0.0919555
0.0354424
0.0989626
0.036401
0.106048
0.0373418
0.113177
0.038323
0.120307
0.0393133
0.127396
0.040272
0.134383
0.041253
0.141201
0.0422279
0.147809
0.0431613
0.154182
0.0441216
0.160339
0.0450723
0.166323
0.0460687
0.172184
0.0471845
0.177984
0.0481662
0.183736
0.0493432
0.189461
0.0503722
0.195166
0.0515925
0.20087
0.0528162
0.206584
0.0539946
0.212322
0.0551426
0.218072
0.0562508
0.223775
0.05729
0.229361
0.0582298
0.234749
0.0590934
0.239867
0.0598809
0.244629
0.0606193
0.248951
0.0613159
0.252738
0.06199
0.255915
0.0626377
0.258453
0.0632718
0.26031
0.0639095
0.261263
0.064561
0.261388
0.0652261
0.261108
0.0658618
0.260474
0.0665285
0.25952
0.0672007
0.258318
0.0679001
0.256963
0.0686555
0.255559
0.0694451
0.254189
0.0702645
0.252908
0.0710858
0.251728
0.071897
0.250644
0.0726851
0.249637
0.0734588
0.2487
0.0742223
0.24786
0.0749768
0.247212
0.0757269
0.24689
0.0765014
0.246922
0.0773236
0.247323
0.0782094
0.248158
0.0790867
0.249527
0.080094
0.251594
0.0811416
0.254501
0.0822317
0.25842
0.0832719
0.26352
0.0845281
0.269974
0.0857049
0.277842
0.0869851
0.287169
0.08821
0.297989
0.0898018
0.310355
0.0913869
0.324268
0.0932771
0.339908
0.0953233
0.357258
0.0977342
0.376412
0.0999121
0.397496
0.102373
0.420208
0.104537
0.444919
0.107156
0.471591
0.109625
0.500224
0.11207
0.53078
0.114749
0.563349
0.117318
0.597993
0.120134
0.634739
0.122844
0.67379
0.125746
0.715198
0.128932
0.759149
0.132218
0.805881
0.135725
0.85567
0.139403
0.908771
0.143054
0.965488
0.1468
1.02649
0.150408
1.09242
0.154289
1.16448
0.158171
1.24407
0.162105
1.33346
0.166596
1.43598
0.171968
1.55645
0.178605
1.70322
0.186619
1.89118
0.197786
2.15046
0.213289
2.50718
0.238127
2.66777
0.253092
1.59909
0.202671
0.378666
0.0909477
0.330619
0.0712237
0.329581
0.070037
0.329631
0.0691291
0.32905
0.0681981
0.328424
0.0672364
0.327855
0.0662743
0.32732
0.0652974
0.326808
0.064307
0.326314
0.0633063
0.325834
0.0622966
0.325376
0.0612654
0.324949
0.0602261
0.324598
0.0591491
0.324402
0.0580153
0.324597
0.0568497
0.32556
0.055784
0.327924
0.0548734
0.332805
0.0539141
0.341976
0.0528713
0.358
0.0517303
0.384247
0.0504231
0.42464
0.0490154
0.482635
0.0476015
0.558198
0.04585
0.643059
0.043749
0.720071
0.0410718
0.773319
0.0383326
0.799618
0.0333295
0.81009
0.0274158
0.816208
0.0235541
0.82106
0.0197516
0.824917
0.0160503
0.827928
0.0124955
0.829996
0.00921517
0.831068
0.00644587
0.831233
0.00429833
0.830779
0.00286121
0.829865
0.00189756
0.828726
0.00114366
0.827305
0.000611049
0.825563
0.000266478
0.823571
7.10629e-05
0.821449
-1.39313e-05
0.81931
-3.67635e-05
0.817222
-4.05637e-05
0.815201
-2.94188e-05
0.813247
-1.77571e-05
0.811353
-1.03161e-05
0.809503
-6.79013e-06
0.807683
-5.73965e-06
0.805886
-5.49168e-06
0.804108
-5.55594e-06
-5.74735e-06
0.00406781
0.0241846
0.00696916
0.0291722
0.00996098
0.0278874
0.0134418
0.0270057
0.0171433
0.027297
0.0210336
0.0279421
0.025097
0.0286307
0.0293472
0.0293472
0.0338298
0.0302576
0.0385835
0.0312099
0.0436082
0.0321782
0.0489006
0.0331821
0.0544571
0.0342157
0.0602779
0.0352871
0.0663541
0.0363617
0.072675
0.0373974
0.0792134
0.0385014
0.0859424
0.0395947
0.0928224
0.0406945
0.0998127
0.0417712
0.106879
0.0428313
0.113988
0.0439312
0.121096
0.0450441
0.128161
0.0461236
0.135121
0.0472336
0.141911
0.0483486
0.148491
0.0494268
0.15484
0.0505456
0.16098
0.0516624
0.166961
0.0528234
0.17283
0.0541144
0.178642
0.0552608
0.184408
0.0566103
0.190144
0.0578063
0.195861
0.0591792
0.20157
0.0605463
0.207283
0.0618601
0.213012
0.0631336
0.218745
0.0643627
0.224433
0.0655311
0.230014
0.0665972
0.23541
0.0675852
0.240544
0.0684862
0.245327
0.0693358
0.249669
0.0701338
0.253473
0.0709097
0.256666
0.0716612
0.259215
0.0724052
0.261072
0.0731487
0.262014
0.0739013
0.26215
0.0746634
0.261864
0.0754032
0.261224
0.0761848
0.260273
0.0769794
0.259083
0.0777902
0.257752
0.0786367
0.256375
0.0794992
0.255034
0.0803845
0.253777
0.0812752
0.252621
0.082175
0.251565
0.0830617
0.250587
0.0839417
0.249681
0.084807
0.248883
0.0856547
0.248286
0.0864999
0.248006
0.0873699
0.248078
0.0882843
0.248529
0.0892665
0.249423
0.0902457
0.250861
0.0913735
0.253005
0.0925318
0.255984
0.0937666
0.259956
0.0949698
0.265102
0.0963779
0.271594
0.0976873
0.279498
0.0991294
0.28888
0.100488
0.299784
0.102157
0.312249
0.103789
0.326256
0.105792
0.341915
0.10792
0.359288
0.110506
0.378432
0.112986
0.399445
0.115845
0.422213
0.118693
0.446964
0.121809
0.473653
0.124853
0.502328
0.127793
0.532989
0.130956
0.565691
0.134016
0.600465
0.137338
0.637353
0.140565
0.676539
0.143833
0.718049
0.147387
0.762046
0.150936
0.808725
0.154596
0.858331
0.158351
0.911189
0.16204
0.967594
0.165872
1.02826
0.169399
1.09393
0.17342
1.16585
0.177677
1.24558
0.18208
1.3354
0.187651
1.43904
0.193977
1.56116
0.20239
1.71033
0.212767
1.90219
0.226323
2.16937
0.245086
2.52787
0.274914
2.66564
0.285611
1.46666
0.222176
0.364857
0.0992822
0.329096
0.0804314
0.328079
0.0791751
0.328104
0.0781965
0.327494
0.0771656
0.32685
0.0760865
0.326252
0.0749917
0.325684
0.0738762
0.32514
0.0727463
0.324613
0.0715997
0.324097
0.0704446
0.323605
0.069264
0.323144
0.0680714
0.322761
0.0668429
0.32254
0.0655485
0.322692
0.0642082
0.323618
0.0629249
0.325963
0.0618464
0.330833
0.0607361
0.340006
0.0595286
0.356034
0.0581907
0.382266
0.0566692
0.422585
0.0550646
0.480359
0.053407
0.555321
0.0513913
0.639143
0.0490433
0.714557
0.0461227
0.766657
0.0433526
0.792369
0.0376704
0.80292
0.0313963
0.809294
0.0273397
0.814377
0.0233845
0.818555
0.0195573
0.82218
0.0158411
0.825218
0.0122528
0.827485
0.00900234
0.828716
0.00627821
0.82888
0.00416988
0.828485
0.00278359
0.827764
0.00182369
0.826691
0.00111045
0.825232
0.000593504
0.823438
0.00025479
0.821429
6.34978e-05
0.819331
-1.80879e-05
0.817245
-3.90485e-05
0.815222
-4.25335e-05
0.813261
-3.03586e-05
0.811359
-1.8265e-05
0.809504
-1.05017e-05
0.807683
-6.77169e-06
0.805885
-5.60231e-06
0.804108
-5.34774e-06
-5.42085e-06
0.00414507
0.0279417
0.00730393
0.0339487
0.0105591
0.0326284
0.01411
0.031547
0.0178745
0.0317066
0.0218219
0.032331
0.0259518
0.0330492
0.0302576
0.0338298
0.034787
0.034787
0.0395741
0.0357796
0.044617
0.0368119
0.049917
0.0378913
0.0554743
0.0390071
0.0612929
0.0401616
0.0673636
0.04133
0.0736753
0.0424638
0.0802029
0.043672
0.08692
0.044866
0.0937871
0.0460691
0.100764
0.0472543
0.107815
0.0484255
0.11491
0.0496358
0.122004
0.0508662
0.129049
0.0520618
0.135987
0.0532919
0.142755
0.0545428
0.149314
0.0557638
0.155645
0.0570399
0.161776
0.0583196
0.16776
0.0596377
0.17364
0.0610975
0.179467
0.0624062
0.185249
0.0639314
0.190998
0.065294
0.196727
0.0668149
0.202444
0.0683208
0.208162
0.0697749
0.21389
0.0711805
0.21962
0.0725387
0.225305
0.0738354
0.230886
0.0750212
0.236286
0.0761256
0.241431
0.0771327
0.246224
0.0780894
0.250577
0.0789898
0.254391
0.0798716
0.257596
0.0807274
0.260158
0.0815787
0.262021
0.0824264
0.262968
0.0832824
0.263123
0.0841435
0.262843
0.0849871
0.262209
0.085879
0.261269
0.0867884
0.260098
0.087704
0.258791
0.0886373
0.25744
0.0895726
0.256125
0.0905247
0.254895
0.0914842
0.253771
0.0924674
0.252751
0.0934429
0.251812
0.0944212
0.250951
0.095379
0.250204
0.0963148
0.249664
0.0972547
0.249428
0.0982227
0.249536
0.0992302
0.250025
0.10031
0.250962
0.101391
0.252452
0.102631
0.254648
0.103891
0.257668
0.105266
0.261673
0.106622
0.266839
0.108182
0.273335
0.109641
0.28124
0.111278
0.290649
0.112799
0.301615
0.114582
0.314161
0.11628
0.328271
0.118364
0.344009
0.120546
0.361452
0.123197
0.380656
0.125818
0.401681
0.128905
0.424532
0.132137
0.449324
0.135604
0.476045
0.139122
0.50475
0.14251
0.53546
0.146144
0.568176
0.149647
0.602924
0.153373
0.639759
0.156978
0.678849
0.160499
0.720237
0.164286
0.764095
0.167938
0.810596
0.171624
0.859989
0.175406
0.91266
0.179081
0.968953
0.183114
1.02959
0.186978
1.09543
0.191563
1.16768
0.196892
1.24825
0.202202
1.33918
0.209243
1.44422
0.217177
1.56843
0.227265
1.72016
0.239711
1.9163
0.255624
2.19139
0.278139
2.5482
0.313086
2.65514
0.317391
1.32585
0.237447
0.352036
0.106065
0.327278
0.0892116
0.326542
0.0879549
0.326346
0.0868959
0.325692
0.0857496
0.325016
0.084548
0.324383
0.0833231
0.323779
0.0820761
0.323199
0.0808103
0.322635
0.0795233
0.322082
0.0782253
0.321551
0.0768986
0.321051
0.0755555
0.320631
0.0741748
0.320378
0.0727213
0.320485
0.0712105
0.32137
0.0697206
0.323689
0.0684653
0.328545
0.0672041
0.337717
0.0658343
0.353749
0.0643055
0.379967
0.0625808
0.420211
0.0607823
0.477736
0.0588844
0.552044
0.0566762
0.634824
0.0540584
0.708679
0.0511742
0.75958
0.0482423
0.78467
0.0419745
0.795337
0.035528
0.802055
0.0313384
0.807417
0.0272136
0.811849
0.0232294
0.815854
0.0193694
0.819545
0.0155839
0.822758
0.0120067
0.825219
0.0088153
0.826484
0.0061052
0.82669
0.00404789
0.826396
0.00268273
0.825743
0.00175938
0.824642
0.00108451
0.82312
0.000577294
0.821301
0.000243298
0.819313
5.64718e-05
0.817267
-2.17312e-05
0.815245
-4.11103e-05
0.813284
-4.44417e-05
0.811374
-3.11731e-05
0.809511
-1.86944e-05
0.807685
-1.06157e-05
0.805885
-6.70279e-06
0.804107
-5.45933e-06
-5.18964e-06
0.00403225
0.0322785
0.0074586
0.0388861
0.011054
0.0374504
0.0147962
0.0363064
0.0186712
0.0364002
0.0226847
0.0370196
0.0268633
0.0377525
0.0312099
0.0385835
0.0357796
0.0395741
0.0406005
0.0406005
0.0456695
0.041686
0.0509903
0.0428236
0.0565631
0.0440042
0.0623935
0.0452251
0.0684705
0.0464745
0.0747827
0.0476952
0.0813054
0.0489967
0.0880126
0.050282
0.0948658
0.0515813
0.101826
0.0528685
0.108861
0.0541442
0.11594
0.0554576
0.123016
0.0568009
0.13004
0.0581115
0.136954
0.0594597
0.143697
0.0608403
0.150233
0.0621984
0.156547
0.0636275
0.162669
0.0650597
0.168654
0.0665259
0.174544
0.0681479
0.180379
0.0696186
0.186169
0.0713161
0.191923
0.0728426
0.197655
0.0745111
0.203371
0.076157
0.209088
0.0777534
0.214818
0.0792964
0.220553
0.0807788
0.226246
0.0821988
0.231839
0.0834957
0.237256
0.0847084
0.242422
0.0858132
0.247239