/*--------------------------------*- C++ -*----------------------------------*\
  =========                 |
  \\      /  F ield         | OpenFOAM: The Open Source CFD Toolbox
   \\    /   O peration     | Website:  https://openfoam.org
    \\  /    A nd           | Version:  13
     \\/     M anipulation  |
\*---------------------------------------------------------------------------*/
FoamFile
{
    format      ascii;
    class       volScalarField;
    location    "0.0018";
    object      Qdot;
}
// * * * * * * * * * * * * * * * * * * * * * * * * * * * * * * * * * * * * * //

dimensions      [1 -1 -3 0 0 0 0];

internalField   nonuniform List<scalar> 
33334
(
-3.82236e-20
-3.86984e-20
-4.06287e-20
-4.58125e-20
-5.65618e-20
-7.68122e-20
-1.13476e-19
-1.8084e-19
-3.09717e-19
-5.68953e-19
-1.12028e-18
-2.35909e-18
-5.27867e-18
-1.24291e-17
-3.0454e-17
-7.67976e-17
-1.97332e-16
-5.12282e-16
-1.33445e-15
-3.46987e-15
-8.9727e-15
-2.30211e-14
-5.85479e-14
-1.47662e-13
-3.69981e-13
-9.23602e-13
-2.3045e-12
-5.76181e-12
-1.44405e-11
-3.61826e-11
-9.02335e-11
-2.22694e-10
-5.40566e-10
-1.28383e-09
-2.96998e-09
-6.67103e-09
-1.45107e-08
-3.05008e-08
-6.18401e-08
-1.20707e-07
-2.265e-07
-4.08206e-07
-7.06251e-07
-1.17295e-06
-1.87079e-06
-2.86823e-06
-4.23329e-06
-6.02524e-06
7.95758e-05
0.000106403
0.000191832
7.0755e-05
0.000274029
0.000271457
0.00027024
0.000270135
0.000270433
0.000271387
0.000273049
0.00027522
0.000277613
7.10993e-05
7.2907e-05
7.44229e-05
0.000195654
0.00019695
0.000198103
0.000199122
0.000108927
0.000109449
0.000109883
0.000110254
0.000203389
0.000204199
0.000205002
0.000205799
7.87916e-05
7.79986e-05
7.67522e-05
0.000306239
0.000306299
0.000203413
0.000439618
0.000540588
0.000640082
0.000988496
0.00152064
0.00208876
0.00317432
0.00516488
0.00860571
0.0151479
0.0283988
0.0562155
0.119501
0.269969
0.65604
1.72551
4.95664
15.6556
54.7308
214.849
960.015
4911.47
29352.7
212800
1.91882e+06
2.27709e+07
3.98595e+08
1.1441e+10
2.72127e+11
3.37765e+10
3.43954e+07
6.35267e+06
6.20316e+06
6.15638e+06
5.96523e+06
5.79235e+06
5.76848e+06
5.77841e+06
5.79495e+06
5.81644e+06
5.84665e+06
5.88675e+06
5.93496e+06
5.98002e+06
6.00718e+06
5.98422e+06
5.84003e+06
5.46446e+06
4.72446e+06
3.55762e+06
2.13787e+06
908148
233527
30708.1
1859.7
59.3764
1.75044
0.10759
0.0226792
0.013674
0.0130744
0.0131722
0.0133616
0.0136233
0.0138027
0.0138768
0.0138081
0.013715
0.0134534
0.01312
0.0128332
0.0125193
0.0122563
0.012038
0.0119048
0.0118383
0.0116496
0.0113953
0.0111968
0.0110593
0.0108696
0.0107497
0.0105238
0.0104271
-3.86984e-20
-3.92887e-20
-4.12323e-20
-4.6457e-20
-5.73379e-20
-7.77438e-20
-1.14622e-19
-1.8204e-19
-3.1034e-19
-5.68018e-19
-1.11605e-18
-2.34724e-18
-5.24803e-18
-1.23498e-17
-3.02447e-17
-7.62319e-17
-1.95772e-16
-5.0793e-16
-1.32227e-15
-3.43583e-15
-8.87828e-15
-2.27609e-14
-5.78365e-14
-1.45734e-13
-3.648e-13
-9.09824e-13
-2.26789e-12
-5.66113e-12
-1.41536e-11
-3.53868e-11
-8.81114e-11
-2.17278e-10
-5.2734e-10
-1.2531e-09
-2.902e-09
-6.52795e-09
-1.42226e-08
-2.99382e-08
-6.07531e-08
-1.18677e-07
-2.22876e-07
-4.02031e-07
-6.96212e-07
-1.15738e-06
-1.84773e-06
-2.8356e-06
-4.18925e-06
-5.9682e-06
7.95835e-05
0.000106412
0.000191815
7.0809e-05
0.000273955
0.00027131
0.000269987
0.00026983
0.0002701
0.000271011
0.000272642
0.000274806
0.000277212
7.08522e-05
7.26926e-05
7.4239e-05
0.000195418
0.000196728
0.00019789
0.000198917
0.0001088
0.000109325
0.000109758
0.000110124
0.000203128
0.000203904
0.000204664
0.000205412
7.86829e-05
7.78856e-05
7.664e-05
0.000305477
0.000305973
0.000203343
0.000440191
0.000541526
0.000642013
0.000990934
0.0015242
0.00209372
0.00333501
0.00494603
0.00819921
0.0148119
0.0276883
0.0551938
0.116343
0.262735
0.636361
1.66765
4.77114
14.999
52.168
203.644
904.25
4605.39
27560.5
201868
1.86904e+06
2.28428e+07
3.9706e+08
1.12781e+10
2.71993e+11
3.62497e+10
3.54274e+07
5.81309e+06
5.53799e+06
5.49566e+06
5.56145e+06
5.6891e+06
5.72947e+06
5.75e+06
5.77271e+06
5.80358e+06
5.8436e+06
5.89034e+06
5.94237e+06
5.99151e+06
6.02148e+06
6.00171e+06
5.86172e+06
5.49128e+06
4.7562e+06
3.59021e+06
2.16396e+06
922763
238427
31525.7
1920.07
61.4434
1.80556
0.11154
0.0236085
0.0138416
0.0128548
0.0130408
0.0132032
0.0134785
0.013746
0.0138112
0.0137828
0.0137082
0.0134526
0.0131192
0.0128327
0.0125192
0.0122562
0.0120375
0.011904
0.0118374
0.0116486
0.0113943
0.0111958
0.0110584
0.0108687
0.0107489
0.010523
0.0104262
-4.06287e-20
-4.12323e-20
-4.3264e-20
-4.87765e-20
-6.03143e-20
-8.1788e-20
-1.20341e-19
-1.90205e-19
-3.22185e-19
-5.86502e-19
-1.14855e-18
-2.41055e-18
-5.38148e-18
-1.26479e-17
-3.09374e-17
-7.78806e-17
-1.99741e-16
-5.17493e-16
-1.34512e-15
-3.48951e-15
-9.00121e-15
-2.30332e-14
-5.84137e-14
-1.4689e-13
-3.66952e-13
-9.13373e-13
-2.27206e-12
-5.65853e-12
-1.41147e-11
-3.52252e-11
-8.76045e-11
-2.15908e-10
-5.24065e-10
-1.24612e-09
-2.88912e-09
-6.50831e-09
-1.42014e-08
-2.99354e-08
-6.08197e-08
-1.18932e-07
-2.23581e-07
-4.03715e-07
-6.9987e-07
-1.16475e-06
-1.86164e-06
-2.86038e-06
-4.23098e-06
-6.03455e-06
7.94807e-05
0.000106267
0.000191622
7.05416e-05
0.000273583
0.000270757
0.000269255
0.000269016
0.000269261
0.000270154
0.000271807
0.000274037
0.000276537
7.02704e-05
7.22043e-05
7.38321e-05
0.000195088
0.000196453
0.000197655
0.000198729
0.000199697
0.000109191
0.000109652
0.000202271
0.000203114
0.000203927
0.00020471
0.000205486
7.86914e-05
7.79165e-05
7.66845e-05
0.000306117
0.000306163
0.000203182
0.000439649
0.000540814
0.00064138
0.000990823
0.00152414
0.00209411
0.0032219
0.00510511
0.00808598
0.0145747
0.0269812
0.0539541
0.114593
0.259406
0.63168
1.66215
4.77867
15.1231
53.0311
208.617
935.81
4829.36
29284.6
216269
2.01259e+06
2.45079e+07
4.2654e+08
1.21442e+10
2.78485e+11
3.14702e+10
3.13338e+07
5.75938e+06
5.61048e+06
5.65196e+06
5.71824e+06
5.75113e+06
5.76383e+06
5.77371e+06
5.78996e+06
5.81423e+06
5.8483e+06
5.89073e+06
5.93857e+06
5.98475e+06
6.01116e+06
5.98843e+06
5.84552e+06
5.47304e+06
4.73663e+06
3.57153e+06
2.1496e+06
914771
235680
31040.9
1880.7
59.8085
1.74561
0.107524
0.0227139
0.0132387
0.0124756
0.0127116
0.0130345
0.0132264
0.0135852
0.013698
0.0137036
0.0136633
0.0134375
0.0131166
0.0128322
0.012519
0.0122559
0.0120368
0.0119029
0.011836
0.0116471
0.0113929
0.0111945
0.0110571
0.0108675
0.0107477
0.0105218
0.0104251
-4.58125e-20
-4.6457e-20
-4.87765e-20
-5.49857e-20
-6.80091e-20
-9.23539e-20
-1.36001e-19
-2.14671e-19
-3.62139e-19
-6.55199e-19
-1.27456e-18
-2.65854e-18
-5.90176e-18
-1.37985e-17
-3.35858e-17
-8.41468e-17
-2.14804e-16
-5.53927e-16
-1.43309e-15
-3.70023e-15
-9.49954e-15
-2.41929e-14
-6.1065e-14
-1.52845e-13
-3.801e-13
-9.41912e-13
-2.33338e-12
-5.79384e-12
-1.44336e-11
-3.6002e-11
-8.95302e-11
-2.20718e-10
-5.36055e-10
-1.27561e-09
-2.96008e-09
-6.67426e-09
-1.45779e-08
-3.07684e-08
-6.26282e-08
-1.22718e-07
-2.31196e-07
-4.18463e-07
-7.27364e-07
-1.21402e-06
-1.94636e-06
-3.00009e-06
-4.45172e-06
-6.36861e-06
7.90151e-05
0.000105622
7.3109e-05
6.93858e-05
0.000272171
0.000269043
0.000178513
0.000178132
0.000178301
0.000179181
0.000270069
0.000272505
0.000275227
0.000277919
7.12315e-05
7.3011e-05
7.44638e-05
0.000195871
0.000197147
0.000198279
0.000199296
0.000200234
0.000201121
0.000201985
0.000202859
0.00020373
0.000204557
0.000205345
7.85362e-05
7.77317e-05
7.64727e-05
0.000305413
0.00030547
0.000202621
0.000438839
0.000504928
0.00074626
0.000988441
0.00137409
0.0020904
0.00333121
0.00505779
0.00834866
0.0149493
0.0278676
0.0554106
0.11816
0.269189
0.660948
1.75549
5.08572
16.2127
57.2591
226.379
1019.52
5294.92
32224.7
237242
2.20134e+06
2.68095e+07
4.67434e+08
1.34607e+10
2.92552e+11
2.64894e+10
2.70494e+07
5.74065e+06
5.64555e+06
5.67732e+06
5.70079e+06
5.71088e+06
5.71583e+06
5.72449e+06
5.74012e+06
5.76336e+06
5.79595e+06
5.83775e+06
5.88435e+06
5.9299e+06
5.95514e+06
5.93124e+06
5.78641e+06
5.41399e+06
4.67973e+06
3.52163e+06
2.11329e+06
895645
229516
30025.2
1805.37
57.0581
1.6627
0.103006
0.0217988
0.0126443
0.0119618
0.0121914
0.0126533
0.0130745
0.0133624
0.013593
0.0136518
0.013586
0.0134004
0.0131044
0.0128302
0.0125192
0.0122566
0.0120371
0.0119026
0.0118353
0.0116461
0.0113918
0.0111934
0.0110561
0.0108666
0.0107468
0.010521
0.0104244
-5.65618e-20
-5.73379e-20
-6.03143e-20
-6.80091e-20
-8.40833e-20
-1.14146e-19
-1.68076e-19
-2.65281e-19
-4.46824e-19
-8.04999e-19
-1.55521e-18
-3.21672e-18
-7.07676e-18
-1.63966e-17
-3.95592e-17
-9.8273e-17
-2.48807e-16
-6.36498e-16
-1.63394e-15
-4.18697e-15
-1.06704e-14
-2.69826e-14
-6.76469e-14
-1.68247e-13
-4.1595e-13
-1.0253e-12
-2.5287e-12
-6.25857e-12
-1.55604e-11
-3.87805e-11
-9.64441e-11
-2.37931e-10
-5.78529e-10
-1.37864e-09
-3.20423e-09
-7.2366e-09
-1.58338e-08
-3.3482e-08
-6.82873e-08
-1.34114e-07
-2.53376e-07
-4.60166e-07
-8.03038e-07
-1.34631e-06
-2.16884e-06
-3.35956e-06
-5.0093e-06
8.02557e-05
-9.98583e-06
0.000192104
7.09408e-05
0.000273002
0.000268789
0.000176444
0.000381707
0.000381522
0.000381925
0.000294115
0.000177487
0.000180249
0.000272692
0.000275775
0.00015908
7.1433e-05
7.30971e-05
7.44404e-05
0.000196091
0.000197328
0.000198432
0.000199444
0.000200392
0.000201302
0.000202205
0.000203106
0.000203945
7.84479e-05
7.79327e-05
7.70827e-05
0.000173501
0.000304539
0.000304553
0.000201479
0.000540711
0.000397911
0.000991851
0.000983578
0.00158771
0.00245406
0.00327527
0.00541706
0.0090898
0.0159041
0.0299492
0.0595703
0.127802
0.293043
0.722487
1.9264
5.59671
17.8811
63.3277
250.918
1130.2
5881.32
35917.4
264429
2.45106e+06
3.02413e+07
5.34599e+08
1.551e+10
3.08269e+11
2.07006e+10
2.28535e+07
5.74175e+06
5.66001e+06
5.67322e+06
5.6775e+06
5.67814e+06
5.68171e+06
5.69054e+06
5.70545e+06
5.72751e+06
5.75811e+06
5.7976e+06
5.84106e+06
5.88315e+06
5.90526e+06
5.8766e+06
5.7281e+06
5.35319e+06
4.61882e+06
3.4663e+06
2.07149e+06
872532
221615
28650.8
1700.18
53.2061
1.5475
0.0964341
0.0207504
0.0119641
0.0113176
0.0117216
0.0121102
0.0126834
0.0130745
0.0133699
0.0134919
0.0134661
0.0133321
0.013074
0.0128199
0.0125177
0.0122573
0.0120385
0.0119036
0.0118356
0.011646
0.0113914
0.0111929
0.0110556
0.0108661
0.0107464
0.0105207
0.010424
-7.68122e-20
-7.77438e-20
-8.1788e-20
-9.23539e-20
-1.14146e-19
-1.54679e-19
-2.27208e-19
-3.57832e-19
-6.01156e-19
-1.07837e-18
-2.06928e-18
-4.2421e-18
-9.23799e-18
-2.11759e-17
-5.05439e-17
-1.24248e-16
-3.11389e-16
-7.88848e-16
-2.00618e-15
-5.09526e-15
-1.28761e-14
-3.23036e-14
-8.03958e-14
-1.98632e-13
-4.88208e-13
-1.19755e-12
-2.9423e-12
-7.26145e-12
-1.80164e-11
-4.48483e-11
-1.11491e-10
-2.75125e-10
-6.6944e-10
-1.59689e-09
-3.71603e-09
-8.40417e-09
-1.84175e-08
-3.90158e-08
-7.97449e-08
-1.5705e-07
-2.97756e-07
-5.43095e-07
-9.52481e-07
-1.60563e-06
-2.60153e-06
-4.05307e-06
-6.07649e-06
7.86803e-05
0.000192589
7.16602e-05
0.000272919
0.000267884
0.000380725
0.000465355
0.000463503
0.000463438
0.000464046
0.000465823
0.000379625
0.000383362
0.000178871
0.000272022
0.000275359
0.000278229
7.06491e-05
7.22645e-05
7.35649e-05
7.46143e-05
7.54594e-05
0.000197893
0.000198923
0.000199888
0.000200815
0.000201719
7.73524e-05
7.7037e-05
7.64455e-05
7.54899e-05
0.000301832
0.00030244
0.000201936
0.000435984
0.000537285
0.000393524
0.000879055
0.00122787
0.00172158
0.00228357
0.00404432
0.00586868
0.010068
0.0178008
0.0335161
0.0672079
0.143498
0.329524
0.81185
2.16496
6.29135
20.0896
71.1578
282.249
1270.68
6605.13
40446.5
298698
2.77093e+06
3.44787e+07
6.23146e+08
1.83141e+10
3.24635e+11
1.53114e+10
1.89741e+07
5.701e+06
5.6262e+06
5.6271e+06
5.62356e+06
5.62168e+06
5.62478e+06
5.63272e+06
5.64594e+06
5.66598e+06
5.69401e+06
5.73074e+06
5.77139e+06
5.80996e+06
5.82942e+06
5.79563e+06
5.64423e+06
5.26733e+06
4.53478e+06
3.39149e+06
2.01591e+06
842227
211412
26915.3
1571.05
48.6156
1.41364
0.0887891
0.01942
0.0113735
0.0107658
0.0110247
0.0116282
0.0121536
0.0127442
0.0130864
0.0132797
0.0133032
0.0131612
0.0130737
0.012792
0.0125078
0.0122561
0.0120397
0.0119055
0.011837
0.0116467
0.0113915
0.0111928
0.0110554
0.0108659
0.0107463
0.0105205
0.0104239
-1.13476e-19
-1.14622e-19
-1.20341e-19
-1.36001e-19
-1.68076e-19
-2.27208e-19
-3.32157e-19
-5.20135e-19
-8.68613e-19
-1.54782e-18
-2.94666e-18
-5.98433e-18
-1.28954e-17
-2.92311e-17
-6.89823e-17
-1.67684e-16
-4.15719e-16
-1.04234e-15
-2.62524e-15
-6.60728e-15
-1.6557e-14
-4.12172e-14
-1.01857e-13
-2.50064e-13
-6.11228e-13
-1.49237e-12
-3.65294e-12
-8.98794e-12
-2.22451e-11
-5.52702e-11
-1.37221e-10
-3.38368e-10
-8.23126e-10
-1.96391e-09
-4.57308e-09
-1.03539e-08
-2.27268e-08
-4.82492e-08
-9.88945e-08
-1.95443e-07
-3.72082e-07
-6.81868e-07
-1.20206e-06
-2.03741e-06
-3.31937e-06
-5.19886e-06
7.92034e-05
0.000105154
7.1945e-05
0.000272209
0.000178067
0.00037757
0.000459551
0.000336238
0.000333923
0.000333756
0.000334514
0.000336824
0.000429863
0.000464473
0.000380349
0.000295723
0.000180448
0.00027371
0.000276691
0.000279218
0.000160825
7.16241e-05
7.2669e-05
7.34941e-05
7.41239e-05
7.45714e-05
7.48417e-05
7.49496e-05
7.48566e-05
7.44521e-05
0.000296603
0.000297696
0.000298476
0.000298672
0.000331157
0.000532458
0.00049669
0.000630369
0.00111748
0.00146683
0.00181171
0.00277785
0.00453157
0.00676498
0.0114072
0.0204473
0.0385461
0.0773845
0.165369
0.377853
0.930431
2.47844
7.19681
22.9608
81.2319
322.032
1450.32
7536.45
46219.2
343905
3.22073e+06
4.03587e+07
7.44395e+08
2.23489e+10
3.37074e+11
1.05004e+10
1.5574e+07
5.63152e+06
5.56874e+06
5.56496e+06
5.55971e+06
5.55734e+06
5.55948e+06
5.56571e+06
5.57674e+06
5.59429e+06
5.61939e+06
5.65278e+06
5.68993e+06
5.72416e+06
5.73967e+06
5.70016e+06
5.54489e+06
5.1652e+06
4.43471e+06
3.30227e+06
1.94965e+06
806275
199468
24926.8
1426.61
43.5843
1.26754
0.080658
0.017949
0.0107422
0.0100892
0.0103861
0.0109218
0.0116892
0.0122258
0.0127595
0.0130661
0.0130969
0.0130603
0.012974
0.0127365
0.0124803
0.0122464
0.0120389
0.0119071
0.0118394
0.0116484
0.0113925
0.0111931
0.0110554
0.0108659
0.0107462
0.0105205
0.0104239
-1.8084e-19
-1.8204e-19
-1.90205e-19
-2.14671e-19
-2.65281e-19
-3.57832e-19
-5.20135e-19
-8.07815e-19
-1.33659e-18
-2.3586e-18
-4.44405e-18
-8.92619e-18
-1.90103e-17
-4.25711e-17
-9.92384e-17
-2.38345e-16
-5.84106e-16
-1.44866e-15
-3.61177e-15
-9.00568e-15
-2.23748e-14
-5.52662e-14
-1.35605e-13
-3.30772e-13
-8.03819e-13
-1.9525e-12
-4.75762e-12
-1.16597e-11
-2.8759e-11
-7.12498e-11
-1.76493e-10
-4.34508e-10
-1.05605e-09
-2.51917e-09
-5.86937e-09
-1.33063e-08
-2.9268e-08
-6.23095e-08
-1.28151e-07
-2.5426e-07
-4.86158e-07
-8.95024e-07
-1.58532e-06
-2.69977e-06
-4.41858e-06
7.96112e-05
0.000105447
7.2182e-05
0.000271259
0.000176623
0.000462685
0.000335881
0.000533594
0.000822999
0.00073185
0.000732048
0.000733563
0.00082629
0.000623966
0.000541483
0.000339992
0.000465711
0.000381803
0.00029672
0.000180583
0.000273814
0.000276491
0.000278797
0.000280822
0.000282644
0.000284312
0.000285868
0.000287342
0.000288772
0.000290149
0.000291362
0.000292371
0.000293126
0.000195872
0.000424581
0.000524774
0.000524503
0.000624482
0.000862759
0.00120835
0.00169883
0.0024082
0.00311023
0.00496353
0.00810324
0.0135393
0.0237922
0.0449726
0.0900765
0.192291
0.439652
1.08171
2.87799
8.34482
26.5854
93.9114
371.697
1673.84
8722.39
53589.8
400865
3.8076e+06
4.85097e+07
9.09064e+08
2.799e+10
3.40092e+11
6.73395e+09
1.27191e+07
5.53839e+06
5.49147e+06
5.48729e+06
5.4818e+06
5.47862e+06
5.47915e+06
5.48328e+06
5.49185e+06
5.50663e+06
5.52864e+06
5.55841e+06
5.59185e+06
5.62148e+06
5.63245e+06
5.58746e+06
5.42769e+06
5.04522e+06
4.31766e+06
3.19849e+06
1.8732e+06
765368
186166
22771.6
1274.3
38.3938
1.11735
0.0724498
0.0164383
0.00996202
0.00946853
0.00969754
0.0102731
0.0109931
0.0117786
0.0122476
0.0126921
0.0128935
0.0129122
0.0128285
0.0126451
0.0124262
0.0122192
0.0120297
0.0119067
0.0118412
0.0116509
0.0113944
0.0111942
0.0110558
0.0108659
0.0107462
0.0105204
0.0104239
-3.09717e-19
-3.1034e-19
-3.22185e-19
-3.62139e-19
-4.46824e-19
-6.01156e-19
-8.68613e-19
-1.33659e-18
-2.18672e-18
-3.81148e-18
-7.08863e-18
-1.40459e-17
-2.94981e-17
-6.51265e-17
-1.49694e-16
-3.54642e-16
-8.57864e-16
-2.10182e-15
-5.18137e-15
-1.27861e-14
-3.14673e-14
-7.70532e-14
-1.87563e-13
-4.54175e-13
-1.09629e-12
-2.64647e-12
-6.41214e-12
-1.56344e-11
-3.83899e-11
-9.47508e-11
-2.34004e-10
-5.74889e-10
-1.39564e-09
-3.32869e-09
-7.76166e-09
-1.7626e-08
-3.88661e-08
-8.30026e-08
-1.71327e-07
-3.41256e-07
-6.55148e-07
-1.21104e-06
-2.15354e-06
-3.68107e-06
-6.04483e-06
-9.53375e-06
0.000188551
0.000270413
0.000175377
0.0004594
0.000419179
0.000731043
0.000807986
0.00100691
0.00100414
0.00100457
0.00100689
0.00101207
0.00081191
0.000732006
0.000831195
0.000542036
0.00034058
0.00046659
0.00047201
0.000386303
0.0001789
0.000181511
0.00018368
0.00027691
0.000278807
0.000280506
0.00028204
0.000283441
0.000284721
0.00019108
0.00019096
0.000318869
0.000416454
0.000515442
0.000515629
0.000615129
0.000954506
0.000950674
0.0014703
0.00177805
0.0027357
0.00395175
0.00575486
0.00925027
0.0159704
0.0280877
0.0531897
0.105962
0.226812
0.517997
1.27166
3.37842
9.77645
31.093
109.68
433.966
1956.98
10221.3
63270.8
477543
4.5789e+06
5.9755e+07
1.15197e+09
3.60404e+10
3.29095e+11
4.03396e+09
1.03238e+07
5.43097e+06
5.3987e+06
5.39458e+06
5.38843e+06
5.384e+06
5.38277e+06
5.38477e+06
5.39088e+06
5.40283e+06
5.42168e+06
5.44774e+06
5.47726e+06
5.5022e+06
5.50827e+06
5.45813e+06
5.29346e+06
4.90864e+06
4.18516e+06
3.0819e+06
1.78829e+06
720678
171964
20533.6
1120.84
33.2733
0.97079
0.0644073
0.0149646
0.00923645
0.00884668
0.00913304
0.00963397
0.0103437
0.0110946
0.0118106
0.0121889
0.012535
0.012653
0.0126321
0.0125135
0.0123381
0.0121655
0.0120032
0.0118982
0.0118412
0.011653
0.0113969
0.0111961
0.0110569
0.0108663
0.0107462
0.0105204
0.0104238
-5.68953e-19
-5.68018e-19
-5.86502e-19
-6.55199e-19
-8.04999e-19
-1.07837e-18
-1.54782e-18
-2.3586e-18
-3.81148e-18
-6.54986e-18
-1.19944e-17
-2.33816e-17
-4.82852e-17
-1.04819e-16
-2.36954e-16
-5.52448e-16
-1.31623e-15
-3.17946e-15
-7.73585e-15
-1.88606e-14
-4.59042e-14
-1.11261e-13
-2.68292e-13
-6.44025e-13
-1.54208e-12
-3.69499e-12
-8.89168e-12
-2.15469e-11
-5.26225e-11
-1.29292e-10
-3.1818e-10
-7.79779e-10
-1.89059e-09
-4.50842e-09
-1.05219e-08
-2.39368e-08
-5.29137e-08
-1.13343e-07
-2.34732e-07
-4.6916e-07
-9.03789e-07
-1.67612e-06
-2.98953e-06
-5.12348e-06
7.76048e-05
0.00018857
0.000269849
0.000174585
0.000456361
0.000531824
0.00081093
0.00100061
0.00110283
0.00129927
0.00138477
0.00138553
0.00138899
0.00139642
0.00111024
0.00112336
0.00080925
0.00082169
0.000832657
0.00054243
0.000339652
0.000465611
0.000470629
0.000474946
0.000387645
0.000390721
0.000393467
0.000395969
0.00039828
0.000400438
0.000402477
0.000404347
0.000405828
0.00050331
0.00050466
0.000373524
0.000603551
0.000837249
0.000936779
0.00141636
0.00165397
0.00220824
0.0029386
0.00462198
0.00693394
0.011475
0.0189913
0.0338542
0.0632777
0.126914
0.270277
0.616246
1.51058
4.00422
11.5664
36.7624
129.679
513.848
2327.46
12214.3
76062.8
581985
5.6795e+06
7.54204e+07
1.50707e+09
4.77617e+10
3.02379e+11
2.19864e+09
8.50826e+06
5.31001e+06
5.28846e+06
5.28387e+06
5.27677e+06
5.27115e+06
5.26838e+06
5.26851e+06
5.27237e+06
5.28169e+06
5.29748e+06
5.31992e+06
5.34552e+06
5.36589e+06
5.36707e+06
5.3122e+06
5.14277e+06
4.75645e+06
4.0386e+06
2.9542e+06
1.69652e+06
673272
157266
18286.1
971.948
28.4028
0.833273
0.05683
0.0136762
0.0085279
0.00823037
0.00845698
0.00900525
0.00964014
0.0104491
0.0111358
0.0117605
0.0120485
0.0123082
0.0124364
0.012393
0.0122157
0.0120791
0.0119505
0.0119322
0.0118334
0.0116532
0.0113991
0.0111988
0.0110589
0.0108675
0.0107467
0.0105205
0.0104238
-1.12028e-18
-1.11605e-18
-1.14855e-18
-1.27456e-18
-1.55521e-18
-2.06928e-18
-2.94666e-18
-4.44405e-18
-7.08863e-18
-1.19944e-17
-2.15853e-17
-4.1294e-17
-8.36248e-17
-1.77989e-16
-3.9463e-16
-9.03034e-16
-2.1138e-15
-5.02234e-15
-1.20337e-14
-2.89262e-14
-6.94862e-14
-1.66393e-13
-3.96774e-13
-9.42668e-13
-2.23583e-12
-5.31072e-12
-1.26787e-11
-3.05059e-11
-7.40409e-11
-1.80972e-10
-4.43536e-10
-1.08384e-09
-2.62342e-09
-6.25304e-09
-1.46022e-08
-3.32678e-08
-7.3695e-08
-1.58253e-07
-3.28625e-07
-6.58617e-07
-1.27207e-06
-2.36469e-06
-4.22616e-06
7.82104e-05
0.000188714
6.76804e-05
0.000174379
0.000453823
0.000615023
0.00080273
0.00122302
0.001377
0.0016507
0.00181438
0.0018103
0.00181144
0.00181647
0.0019458
0.00157498
0.00138506
0.00128478
0.00121281
0.00101896
0.00082211
0.000742449
0.000630731
0.000547215
0.000341222
0.000345555
0.00044066
0.000474673
0.000477952
0.000480942
0.000483694
0.000486256
0.00048861
0.000363211
0.000363198
0.000589557
0.000819676
0.000820476
0.000919436
0.00139311
0.0015259
0.00196953
0.0026607
0.00385678
0.00563784
0.0087172
0.0138242
0.0232846
0.0410373
0.0767973
0.153313
0.326394
0.743069
1.81727
4.80972
13.8825
44.1638
156.055
620.701
2826.84
14932.6
94129.4
729413
7.23568e+06
9.92078e+07
2.0462e+09
6.54454e+10
2.54426e+11
1.11515e+09
7.16915e+06
5.17324e+06
5.15864e+06
5.15332e+06
5.1454e+06
5.1389e+06
5.13495e+06
5.13355e+06
5.13551e+06
5.14253e+06
5.15555e+06
5.17466e+06
5.1965e+06
5.2126e+06
5.20915e+06
5.15004e+06
4.97648e+06
4.58987e+06
3.87955e+06
2.81718e+06
1.59953e+06
624180
142454
16094.6
831.92
23.9213
0.707746
0.0497586
0.0123092
0.00790744
0.0075692
0.00784981
0.00838704
0.00906387
0.00980197
0.010495
0.0110939
0.0116334
0.0118992
0.0120421
0.0120912
0.0120493
0.0119609
0.0119254
0.0118812
0.0118094
0.0116462
0.0113996
0.011201
0.0110616
0.0108695
0.0107478
0.0105209
0.0104239
-2.35909e-18
-2.34724e-18
-2.41055e-18
-2.65854e-18
-3.21672e-18
-4.2421e-18
-5.98433e-18
-8.92619e-18
-1.40459e-17
-2.33816e-17
-4.1294e-17
-7.73828e-17
-1.53331e-16
-3.19191e-16
-6.92318e-16
-1.55092e-15
-3.55778e-15
-8.29456e-15
-1.95266e-14
-4.61759e-14
-1.09256e-13
-2.57989e-13
-6.07283e-13
-1.42572e-12
-3.34478e-12
-7.86599e-12
-1.86105e-11
-4.44195e-11
-1.07057e-10
-2.60126e-10
-6.34496e-10
-1.54499e-09
-3.73096e-09
-8.88278e-09
-2.07413e-08
-4.72897e-08
-1.04898e-07
-2.25645e-07
-4.69445e-07
-9.42566e-07
-1.82353e-06
-3.39444e-06
-6.07249e-06
0.000103434
6.88615e-05
0.000174766
0.000451999
0.000727317
0.000707104
0.00126874
0.00156308
0.0019141
0.00226821
0.00245665
0.00254049
0.00266089
0.00246071
0.00238674
0.00220069
0.00204805
0.00177665
0.00156267
0.00140471
0.00124296
0.00101782
0.000819307
0.000949751
0.000746712
0.000844878
0.000760032
0.00055155
0.000555774
0.000559544
0.000562933
0.000565983
0.00066342
0.000793704
0.000797095
0.000799481
0.000898889
0.0011312
0.00139939
0.00160095
0.00193824
0.00237746
0.00331047
0.00474804
0.00717476
0.0107077
0.0171287
0.0287311
0.0507838
0.0950731
0.188986
0.401567
0.911588
2.22723
5.89011
17.0078
54.2115
192.152
768.165
3524.13
18784.2
119648
944550
9.56091e+06
1.33922e+08
2.89688e+09
9.06809e+10
1.99287e+11
4.92442e+08
6.20399e+06
5.01896e+06
5.00857e+06
5.00249e+06
4.99399e+06
4.98694e+06
4.98212e+06
4.97955e+06
4.97999e+06
4.98514e+06
4.99581e+06
5.01202e+06
5.03049e+06
5.0428e+06
5.03527e+06
4.97258e+06
4.79597e+06
4.41057e+06
3.71004e+06
2.67298e+06
1.49913e+06
574485
127890
14015.7
703.669
19.9083
0.595399
0.0433635
0.0111548
0.00720907
0.00698881
0.00726063
0.0077245
0.0084401
0.00916134
0.00984854
0.0104587
0.0109766
0.011382
0.0117674
0.0118886
0.011882
0.011922
0.0118685
0.0118584
0.0117606
0.0116236
0.0113932
0.0112016
0.0110639
0.0108722
0.0107499
0.0105221
0.0104243
-5.27867e-18
-5.24803e-18
-5.38148e-18
-5.90176e-18
-7.07676e-18
-9.23799e-18
-1.28954e-17
-1.90103e-17
-2.94981e-17
-4.82852e-17
-8.36248e-17
-1.53331e-16
-2.96824e-16
-6.03249e-16
-1.27739e-15
-2.79534e-15
-6.27016e-15
-1.43118e-14
-3.30312e-14
-7.66858e-14
-1.78376e-13
-4.14611e-13
-9.61854e-13
-2.22813e-12
-5.16364e-12
-1.20086e-11
-2.81266e-11
-6.65313e-11
-1.59089e-10
-3.83963e-10
-9.31365e-10
-2.258e-09
-5.43559e-09
-1.2915e-08
-3.01258e-08
-6.86724e-08
-1.52392e-07
-3.28061e-07
-6.83145e-07
-1.37283e-06
-2.65769e-06
-4.94885e-06
-8.85272e-06
7.02765e-05
0.000261719
0.000450958
0.00072359
0.00099219
0.00128496
0.00183664
0.00217784
0.00272211
0.00330085
0.00366051
0.00377293
0.00377598
0.00366853
0.00348275
0.0031278
0.00265864
0.00251727
0.00222399
0.00183585
0.00159149
0.00140228
0.00129915
0.00125306
0.00102334
0.00103336
0.000828972
0.000836115
0.000842545
0.000971963
0.000978132
0.000858831
0.000863514
0.000867666
0.000870693
0.0010996
0.00136432
0.00156589
0.0016665
0.00224126
0.00257814
0.00315385
0.00443642
0.00622401
0.00895592
0.0138709
0.0218168
0.0363798
0.0640422
0.120189
0.238627
0.505152
1.14526
2.79464
7.38936
21.3653
68.2397
242.799
976.953
4510.71
24286.9
157274
1.25709e+06
1.3014e+07
1.89517e+08
4.25849e+09
1.27373e+11
1.39068e+11
2.05749e+08
5.51309e+06
4.84684e+06
4.839e+06
4.8322e+06
4.82337e+06
4.81601e+06
4.81063e+06
4.80724e+06
4.80661e+06
4.81036e+06
4.81923e+06
4.83314e+06
4.84886e+06
4.85811e+06
4.84735e+06
4.78199e+06
4.60375e+06
4.22135e+06
3.53304e+06
2.52436e+06
1.39741e+06
525282
113888
12088.5
588.622
16.3884
0.496725
0.0375432
0.00998784
0.00666627
0.00649508
0.00675453
0.00719813
0.00777309
0.0084733
0.00920617
0.00981479
0.0103476
0.0107973
0.0111495
0.0114515
0.0116969
0.0117686
0.0117744
0.0117442
0.0116815
0.0115775
0.011372
0.0111957
0.0110645
0.0108745
0.0107526
0.0105242
0.0104255
-1.24291e-17
-1.23498e-17
-1.26479e-17
-1.37985e-17
-1.63966e-17
-2.11759e-17
-2.92311e-17
-4.25711e-17
-6.51265e-17
-1.04819e-16
-1.77989e-16
-3.19191e-16
-6.03249e-16
-1.1957e-15
-2.46855e-15
-5.26854e-15
-1.15354e-14
-2.57307e-14
-5.81142e-14
-1.32223e-13
-3.01856e-13
-6.89601e-13
-1.57452e-12
-3.59438e-12
-8.21897e-12
-1.88816e-11
-4.37358e-11
-1.02427e-10
-2.42771e-10
-5.81472e-10
-1.40136e-09
-3.37954e-09
-8.10176e-09
-1.9191e-08
-4.46714e-08
-1.01698e-07
-2.25525e-07
-4.8536e-07
-1.01058e-06
-2.03051e-06
-3.92942e-06
7.69069e-05
0.000184862
0.000262442
0.000450654
0.000605706
0.000986107
0.0013607
0.00178686
0.00244032
0.00317567
0.00411419
0.0048835
0.00511593
0.00531574
0.00532037
0.00524782
0.00477489
0.00437424
0.00395049
0.00340779
0.00306928
0.00248456
0.00222101
0.00183055
0.0016742
0.00160386
0.00140915
0.00133231
0.00131426
0.00114153
0.00127359
0.00128257
0.00129103
0.00129904
0.00118054
0.00118658
0.00138416
0.00151867
0.00171932
0.00185382
0.00218749
0.00262295
0.00368091
0.00435921
0.00588161
0.00826653
0.0117014
0.0179413
0.0282952
0.0473202
0.0832682
0.155546
0.30853
0.652209
1.47675
3.60014
9.51976
27.555
88.2038
315.087
1275.53
5935.76
32338.4
211964
1.7273e+06
1.84161e+07
2.75266e+08
6.53343e+09
1.79284e+11
8.44123e+10
8.45118e+07
5.01329e+06
4.65828e+06
4.65222e+06
4.64484e+06
4.63596e+06
4.6286e+06
4.62304e+06
4.61927e+06
4.61809e+06
4.62106e+06
4.62882e+06
4.6412e+06
4.65499e+06
4.6621e+06
4.64918e+06
4.58229e+06
4.40404e+06
4.02637e+06
3.35244e+06
2.37455e+06
1.29649e+06
477514
100676
10330.4
486.98
13.349
0.411022
0.0324492
0.00892118
0.00605011
0.00597603
0.00610531
0.00663897
0.00724275
0.00785918
0.00851523
0.00917261
0.00970734
0.010178
0.0106402
0.0109698
0.0112167
0.0114214
0.0115738
0.0115945
0.0115694
0.0114427
0.0113283
0.0111756
0.0110589
0.0108752
0.010755
0.0105269
0.0104276
-3.0454e-17
-3.02447e-17
-3.09374e-17
-3.35858e-17
-3.95592e-17
-5.05439e-17
-6.89823e-17
-9.92384e-17
-1.49694e-16
-2.36954e-16
-3.9463e-16
-6.92318e-16
-1.27739e-15
-2.46855e-15
-4.96573e-15
-1.03269e-14
-2.20448e-14
-4.79905e-14
-1.0592e-13
-2.35848e-13
-5.27739e-13
-1.18352e-12
-2.65655e-12
-5.97014e-12
-1.34565e-11
-3.05088e-11
-6.98217e-11
-1.61744e-10
-3.79633e-10
-9.01495e-10
-2.15654e-09
-5.16819e-09
-1.23259e-08
-2.90766e-08
-6.74659e-08
-1.53219e-07
-3.39164e-07
-7.28912e-07
-1.51589e-06
-3.04212e-06
-5.87881e-06
0.000101294
0.000263355
0.000365458
0.000518996
0.000981958
0.00135101
0.00208898
0.00261376
0.00353853
0.0048667
0.00571979
0.00696766
0.00739439
0.00759239
0.00759941
0.00741598
0.00710594
0.00642789
0.00572923
0.00479209
0.00423598
0.00369959
0.00315231
0.0026848
0.00253934
0.00223701
0.00217075
0.00185799
0.00190609
0.00170789
0.00162934
0.00164147
0.00165273
0.00166322
0.00167306
0.00177765
0.0019144
0.00198636
0.00245032
0.00255384
0.00302179
0.00369447
0.00450491
0.00601332
0.00787725
0.0110672
0.0161524
0.0241495
0.037979
0.0631753
0.110893
0.206861
0.409868
0.865285
1.95574
4.76247
12.5908
36.49
117.013
419.498
1710.53
8022.75
44190.2
294516
2.4507e+06
2.67751e+07
4.17388e+08
1.04462e+10
2.44047e+11
4.34605e+10
3.6402e+07
4.63298e+06
4.45739e+06
4.4525e+06
4.4449e+06
4.43644e+06
4.42953e+06
4.4243e+06
4.42072e+06
4.41962e+06
4.42249e+06
4.42988e+06
4.44155e+06
4.45432e+06
4.46026e+06
4.44627e+06
4.37895e+06
4.2021e+06
3.83051e+06
3.17236e+06
2.22655e+06
1.1981e+06
431829
88381.1
8747.64
398.614
10.7615
0.337449
0.0278315
0.00800641
0.00553153
0.00549124
0.00566256
0.0061105
0.00668017
0.00726539
0.00795542
0.00848074
0.00906746
0.00954519
0.0099758
0.0104188
0.0108112
0.0110764
0.0112402
0.0113438
0.0113643
0.0113336
0.0112562
0.0111339
0.0110397
0.01087
0.0107557
0.0105293
0.0104304
-7.67976e-17
-7.62319e-17
-7.78806e-17
-8.41468e-17
-9.8273e-17
-1.24248e-16
-1.67684e-16
-2.38345e-16
-3.54642e-16
-5.52448e-16
-9.03034e-16
-1.55092e-15
-2.79534e-15
-5.26854e-15
-1.03269e-14
-2.09212e-14
-4.35204e-14
-9.23968e-14
-1.99112e-13
-4.3349e-13
-9.49834e-13
-2.08909e-12
-4.60582e-12
-1.0181e-11
-2.2601e-11
-5.05279e-11
-1.14154e-10
-2.61336e-10
-6.06853e-10
-1.42735e-09
-3.38583e-09
-8.05528e-09
-1.90926e-08
-4.48057e-08
-1.03515e-07
-2.34256e-07
-5.17024e-07
-1.10838e-06
-2.29983e-06
-4.60503e-06
-8.87782e-06
6.77985e-05
0.000168742
0.000320569
0.000692996
0.00134443
0.00207284
0.00299277
0.00387056
0.00535045
0.00684833
0.00840002
0.00988034
0.0106438
0.0108987
0.0109092
0.0106776
0.0100023
0.00920378
0.00809107
0.00709741
0.00609439
0.00537568
0.00443191
0.00398335
0.00343247
0.00326354
0.00320846
0.00272325
0.0025359
0.00234415
0.00236365
0.00228879
0.00230493
0.00231994
0.00233395
0.0024424
0.00271094
0.00278636
0.00348227
0.00358849
0.00429169
0.00503024
0.00631705
0.00841015
0.0111097
0.0153859
0.0218375
0.0331978
0.0521133
0.0865436
0.15185
0.282485
0.55826
1.17619
2.65448
6.45777
17.0728
49.5361
159.064
573.447
2352.38
11108.7
62131.8
421141
3.57196e+06
4.03829e+07
6.58992e+08
1.7305e+10
3.05384e+11
1.83056e+10
1.75511e+07