/*--------------------------------*- C++ -*----------------------------------*\
  =========                 |
  \\      /  F ield         | OpenFOAM: The Open Source CFD Toolbox
   \\    /   O peration     | Website:  https://openfoam.org
    \\  /    A nd           | Version:  13
     \\/     M anipulation  |
\*---------------------------------------------------------------------------*/
FoamFile
{
    format      ascii;
    class       volScalarField;
    location    "0.0018";
    object      rho;
}
// * * * * * * * * * * * * * * * * * * * * * * * * * * * * * * * * * * * * * //

dimensions      [1 -3 0 0 0 0 0];

internalField   nonuniform List<scalar> 
33334
(
0.407018
0.407065
0.406976
0.407047
0.407037
0.407185
0.407349
0.407567
0.407887
0.408295
0.408789
0.409359
0.410012
0.410753
0.411586
0.41251
0.413521
0.414619
0.415802
0.417077
0.41845
0.419932
0.421542
0.423303
0.425244
0.4274
0.429801
0.432467
0.435405
0.438597
0.44201
0.445611
0.449354
0.45323
0.457208
0.461283
0.46543
0.469614
0.473792
0.477923
0.481965
0.48588
0.489634
0.49319
0.496514
0.499568
0.502316
0.504741
0.506816
0.508464
0.509659
0.510664
0.511495
0.512168
0.512725
0.513209
0.513665
0.514135
0.514655
0.51525
0.515934
0.51671
0.517581
0.518548
0.519622
0.52086
0.522311
0.523871
0.52559
0.527518
0.529715
0.532257
0.535228
0.538699
0.54274
0.547375
0.552594
0.558358
0.564645
0.571469
0.578328
0.585964
0.594058
0.603038
0.612181
0.622798
0.634162
0.646137
0.658716
0.671739
0.685213
0.699112
0.713559
0.728584
0.744243
0.760505
0.777535
0.795308
0.813952
0.833585
0.85444
0.876651
0.900568
0.926654
0.955459
0.988237
1.02659
1.07333
1.1332
1.21706
1.30634
1.32746
0.991276
0.777158
0.770644
0.772019
0.771542
0.770338
0.771671
0.773832
0.776064
0.778276
0.780498
0.782753
0.785106
0.787566
0.790289
0.793641
0.798218
0.80528
0.817009
0.836868
0.869971
0.923298
1.00556
1.12578
1.28873
1.48583
1.68687
1.8463
1.93878
1.98178
1.99877
2.00207
2.00221
2.00129
1.99947
1.99723
1.99475
1.99246
1.99052
1.98886
1.98733
1.9858
1.98421
1.98256
1.98087
1.97916
1.97747
1.97582
1.97422
1.97266
1.97112
1.96959
1.96807
1.96655
0.407065
0.407393
0.407279
0.407266
0.40723
0.407285
0.407427
0.407634
0.407898
0.408246
0.408685
0.409219
0.40985
0.410576
0.411398
0.412313
0.413313
0.414399
0.41557
0.416831
0.41819
0.419658
0.421253
0.423
0.424926
0.427066
0.429452
0.432103
0.435026
0.438202
0.441596
0.445181
0.448906
0.45277
0.456734
0.460797
0.464936
0.469115
0.473291
0.477422
0.48147
0.485394
0.48916
0.492732
0.496071
0.499142
0.501914
0.504361
0.506449
0.508136
0.509395
0.510371
0.51121
0.511898
0.512463
0.512947
0.513398
0.513861
0.514372
0.514956
0.515628
0.516396
0.51726
0.518219
0.519286
0.520506
0.521923
0.523469
0.525155
0.527038
0.52918
0.531648
0.534518
0.537846
0.541722
0.546168
0.551209
0.556789
0.562918
0.56983
0.578096
0.586518
0.595303
0.604423
0.614461
0.624447
0.635641
0.647338
0.65962
0.672574
0.686186
0.700584
0.715621
0.731386
0.747784
0.764866
0.782578
0.801227
0.82066
0.840928
0.862321
0.885169
0.91004
0.937162
0.967243
1.00134
1.04085
1.08754
1.14474
1.22288
1.31001
1.33482
0.99518
0.769593
0.760148
0.76101
0.763743
0.768189
0.770986
0.773336
0.775651
0.77801
0.780396
0.78277
0.785189
0.787711
0.790467
0.79385
0.798457
0.805546
0.817296
0.837151
0.870214
0.923508
1.0058
1.12617
1.28947
1.487
1.6884
1.84919
1.94316
1.98354
1.99699
2.0006
2.00095
2.00018
1.9986
1.99669
1.99461
1.99243
1.99051
1.98886
1.98734
1.98581
1.98422
1.98257
1.98087
1.97917
1.97748
1.97583
1.97422
1.97266
1.97112
1.9696
1.96808
1.96655
0.406976
0.407279
0.407156
0.407181
0.407269
0.407295
0.407381
0.40755
0.40781
0.408171
0.408628
0.40918
0.409825
0.410562
0.411392
0.412315
0.413323
0.414416
0.415594
0.41686
0.418222
0.419693
0.421291
0.423041
0.424969
0.427109
0.429494
0.432141
0.435057
0.438225
0.441613
0.445193
0.448917
0.452778
0.456745
0.460813
0.464956
0.46914
0.473321
0.477456
0.481503
0.485425
0.489186
0.492751
0.496084
0.49915
0.501917
0.504353
0.506435
0.508136
0.509417
0.510392
0.511218
0.511897
0.512459
0.512944
0.513398
0.513863
0.514377
0.514963
0.515638
0.516411
0.517281
0.518249
0.519329
0.520552
0.521953
0.523526
0.525248
0.527166
0.529347
0.531858
0.53477
0.538134
0.542021
0.546519
0.551751
0.557729
0.564279
0.571365
0.578651
0.586374
0.594783
0.603924
0.614386
0.624784
0.635704
0.647225
0.6594
0.672198
0.685607
0.699674
0.714326
0.729589
0.745457
0.761999
0.779259
0.797347
0.816358
0.836458
0.8579
0.880831
0.905766
0.933058
0.963293
0.997341
1.03678
1.08347
1.14299
1.22254
1.30628
1.32438
0.981764
0.767838
0.761027
0.763525
0.766694
0.769366
0.771598
0.773739
0.775934
0.778184
0.780469
0.78277
0.785121
0.787597
0.7903
0.793645
0.798219
0.805292
0.817035
0.836907
0.870025
0.923383
1.00568
1.12594
1.28896
1.48595
1.68644
1.84636
1.93959
1.97903
1.99287
1.998
1.99911
1.99863
1.9974
1.99582
1.99405
1.99215
1.9904
1.98884
1.98735
1.98583
1.98424
1.98258
1.98088
1.97917
1.97748
1.97583
1.97423
1.97267
1.97113
1.9696
1.96808
1.96656
0.407047
0.407266
0.407181
0.407176
0.407232
0.407301
0.407426
0.407623
0.407886
0.408229
0.408668
0.409202
0.409833
0.410558
0.411379
0.412295
0.413298
0.414388
0.415562
0.416826
0.418187
0.41966
0.421263
0.423018
0.424953
0.4271
0.429491
0.432143
0.435063
0.438235
0.441626
0.445209
0.448935
0.452798
0.456768
0.460839
0.464986
0.469175
0.473363
0.477504
0.481558
0.485485
0.489253
0.492826
0.496166
0.499239
0.502009
0.504449
0.506544
0.508268
0.509564
0.510549
0.511372
0.51205
0.512611
0.513096
0.51355
0.514014
0.514526
0.515109
0.515779
0.516544
0.517404
0.518361
0.519428
0.52063
0.522012
0.523555
0.525254
0.527156
0.529326
0.531831
0.534744
0.538124
0.542042
0.546529
0.551575
0.557179
0.563402
0.570241
0.577567
0.585677
0.59457
0.604013
0.614158
0.624631
0.635569
0.647146
0.659354
0.672153
0.685526
0.699508
0.714099
0.729315
0.745169
0.7617
0.778992
0.797104
0.816211
0.83646
0.857996
0.88113
0.906145
0.933496
0.963763
0.997658
1.03678
1.0834
1.1426
1.22408
1.30751
1.32158
0.96774
0.766659
0.761611
0.764104
0.766588
0.768785
0.770854
0.772958
0.775145
0.77738
0.779643
0.781932
0.784266
0.786738
0.789429
0.792769
0.797326
0.804408
0.816167
0.836079
0.869272
0.922734
1.00515
1.12551
1.28858
1.48543
1.68528
1.8444
1.93707
1.97451
1.98744
1.9937
1.99611
1.99636
1.99567
1.99455
1.99321
1.99164
1.99013
1.98873
1.98733
1.98584
1.98426
1.9826
1.9809
1.97918
1.97749
1.97584
1.97423
1.97267
1.97113
1.96961
1.96809
1.96656
0.407037
0.40723
0.407269
0.407232
0.407242
0.407295
0.407398
0.407595
0.407864
0.408214
0.408653
0.409183
0.409808
0.410528
0.411344
0.412255
0.413254
0.414338
0.415506
0.416765
0.418125
0.419598
0.421202
0.422961
0.4249
0.427051
0.429446
0.432101
0.435024
0.438197
0.441588
0.445168
0.448894
0.452756
0.45673
0.460806
0.464959
0.469155
0.473348
0.477493
0.481548
0.485475
0.489242
0.492812
0.496152
0.499225
0.501997
0.504442
0.506556
0.508303
0.509602
0.5106
0.511427
0.512105
0.512667
0.513153
0.513608
0.514073
0.514584
0.515167
0.515836
0.516602
0.517462
0.518417
0.519476
0.520672
0.522045
0.52357
0.525254
0.527148
0.52931
0.531802
0.534687
0.538018
0.541858
0.546241
0.551224
0.556849
0.563171
0.570129
0.577696
0.585898
0.594791
0.60423
0.61414
0.624654
0.635627
0.647209
0.65937
0.672115
0.685447
0.699395
0.714005
0.729267
0.74521
0.761858
0.779297
0.797586
0.816909
0.837377
0.85908
0.882368
0.907405
0.934676
0.964736
0.998423
1.03724
1.08401
1.14339
1.22631
1.30826
1.31604
0.951904
0.765917
0.762003
0.7642
0.76635
0.768358
0.770385
0.77249
0.774665
0.776881
0.779111
0.781362
0.783645
0.786063
0.788711
0.791985
0.796504
0.803565
0.815319
0.835261
0.868526
0.922104
1.00467
1.12518
1.28826
1.48472
1.68349
1.84114
1.93317
1.96916
1.98142
1.98814
1.99175
1.99315
1.99327
1.99279
1.99196
1.99084
1.98962
1.98846
1.98723
1.98583
1.98428
1.98262
1.98091
1.97919
1.97749
1.97584
1.97424
1.97267
1.97114
1.96961
1.96809
1.96656
0.407185
0.407285
0.407295
0.407301
0.407295
0.407349
0.407449
0.407645
0.407912
0.408259
0.40869
0.409213
0.409831
0.410547
0.411357
0.412261
0.413251
0.414326
0.415485
0.416736
0.418089
0.419559
0.421161
0.422919
0.424859
0.42701
0.429404
0.432058
0.434977
0.438147
0.441532
0.445107
0.448831
0.452692
0.456671
0.460754
0.464917
0.469125
0.47333
0.477483
0.481543
0.485474
0.489241
0.492812
0.496152
0.499225
0.501997
0.504448
0.506577
0.508335
0.509639
0.510648
0.511477
0.512155
0.512717
0.513204
0.513658
0.514122
0.514632
0.515213
0.515884
0.51665
0.51751
0.518462
0.519517
0.520708
0.522068
0.523579
0.525252
0.527141
0.529297
0.531778
0.534646
0.537948
0.541737
0.546057
0.550971
0.556534
0.562808
0.569785
0.577465
0.58575
0.594675
0.604158
0.614075
0.624645
0.635701
0.647343
0.659538
0.672315
0.685682
0.699662
0.714322
0.729658
0.745723
0.762532
0.780149
0.798624
0.818089
0.838645
0.860335
0.883487
0.908289
0.935318
0.965123
0.998708
1.03758
1.08468
1.14511
1.2295
1.31095
1.30898
0.933751
0.764573
0.761624
0.763615
0.765606
0.767551
0.769564
0.771653
0.773798
0.775978
0.778164
0.780369
0.782608
0.784973
0.787589
0.790791
0.795283
0.80232
0.814078
0.834065
0.86743
0.921179
1.00398
1.12476
1.28791
1.48391
1.68137
1.83714
1.9281
1.96304
1.975
1.98188
1.98622
1.98878
1.99003
1.99043
1.99027
1.98967
1.98882
1.98795
1.98697
1.98574
1.98427
1.98264
1.98093
1.97921
1.9775
1.97584
1.97424
1.97267
1.97114
1.96961
1.96809
1.96656
0.407349
0.407427
0.407381
0.407426
0.407398
0.407449
0.407546
0.407735
0.407995
0.408332
0.408753
0.409265
0.409874
0.410581
0.411383
0.412277
0.413258
0.414324
0.415477
0.416722
0.418072
0.41954
0.421139
0.422894
0.42483
0.426977
0.429367
0.432018
0.434933
0.4381
0.44148
0.445051
0.448773
0.452635
0.456621
0.460714
0.46489
0.469111
0.473327
0.477486
0.481548
0.485475
0.489239
0.492805
0.496143
0.499213
0.501986
0.504443
0.506582
0.508347
0.509661
0.510679
0.511511
0.512193
0.512757
0.513245
0.513701
0.514165
0.514676
0.515258
0.515932
0.5167
0.517559
0.51851
0.519565
0.520753
0.522102
0.523604
0.525272
0.527159
0.52931
0.531785
0.534639
0.53792
0.541668
0.545927
0.550764
0.556245
0.562435
0.569355
0.577025
0.585354
0.594328
0.603903
0.613954
0.624623
0.635779
0.647503
0.659777
0.672638
0.686091
0.700155
0.714895
0.730302
0.746442
0.763324
0.780989
0.799477
0.818866
0.839297
0.860826
0.883754
0.908332
0.935211
0.965069
0.998901
1.03839
1.08604
1.14758
1.2337
1.31373
1.29825
0.913327
0.762839
0.760867
0.762755
0.764699
0.766628
0.768623
0.77068
0.772783
0.774917
0.777051
0.7792
0.781382
0.78368
0.786244
0.789367
0.793819
0.800824
0.812591
0.832637
0.866137
0.920113
1.00324
1.12434
1.28754
1.48296
1.67882
1.83259
1.92202
1.95622
1.96818
1.97522
1.97998
1.98331
1.98567
1.98722
1.988
1.98805
1.98767
1.98715
1.98647
1.98549
1.98419
1.98263
1.98095
1.97923
1.97752
1.97585
1.97424
1.97267
1.97114
1.96961
1.96809
1.96656
0.407567
0.407634
0.40755
0.407623
0.407595
0.407645
0.407735
0.407903
0.408145
0.408465
0.408871
0.409372
0.40997
0.410665
0.411454
0.412336
0.413305
0.41436
0.415505
0.416744
0.418089
0.419551
0.421145
0.422893
0.424822
0.426963
0.429349
0.431996
0.434907
0.438069
0.441443
0.445008
0.448728
0.45259
0.456582
0.460684
0.464873
0.469104
0.473327
0.477489
0.481551
0.485476
0.489238
0.492804
0.496142
0.499214
0.50199
0.504453
0.506598
0.508365
0.509686
0.510711
0.511546
0.51223
0.512797
0.513287
0.513744
0.514209
0.51472
0.515305
0.515982
0.516752
0.517612
0.518562
0.519617
0.520803
0.522146
0.523641
0.525306
0.52719
0.529336
0.531803
0.534648
0.537917
0.541642
0.545863
0.550639
0.556041
0.562136
0.568961
0.576543
0.584841
0.593825
0.603457
0.613634
0.624398
0.635652
0.647458
0.659816
0.672757
0.686291
0.700429
0.715219
0.730639
0.746759
0.763593
0.781175
0.799543
0.818749
0.838994
0.860393
0.88323
0.907834
0.934807
0.964983
0.999208
1.03951
1.08818
1.15093
1.2391
1.3164
1.28353
0.890946
0.760752
0.75975
0.761627
0.763559
0.765468
0.767432
0.769447
0.771503
0.773584
0.775663
0.77775
0.779871
0.782098
0.7846
0.78765
0.792051
0.799025
0.810811
0.83094
0.864614
0.918874
1.00238
1.12386
1.28709
1.48185
1.67591
1.82768
1.9152
1.94877
1.96092
1.96828
1.97334
1.97713
1.98028
1.98289
1.98488
1.98591
1.98612
1.986
1.98567
1.98501
1.98395
1.98255
1.98095
1.97925
1.97754
1.97587
1.97425
1.97268
1.97114
1.96961
1.96809
1.96656
0.407887
0.407898
0.40781
0.407886
0.407864
0.407912
0.407995
0.408145
0.408367
0.408668
0.409058
0.409545
0.410128
0.410808
0.41158
0.412445
0.413398
0.414442
0.415576
0.416808
0.418145
0.419598
0.421181
0.422918
0.424838
0.426972
0.429354
0.431997
0.434903
0.438059
0.441427
0.444986
0.448701
0.452562
0.45656
0.46067
0.464867
0.469106
0.473334
0.477499
0.48156
0.485485
0.489245
0.49281
0.496149
0.499222
0.502001
0.504468
0.506616
0.508382
0.50971
0.510742
0.51158
0.512266
0.512836
0.513329
0.513788
0.514255
0.514767
0.515356
0.516037
0.516809
0.51767
0.518618
0.519673
0.520858
0.522196
0.523689
0.525352
0.527235
0.529375
0.531837
0.534672
0.537933
0.541647
0.54585
0.55059
0.555926
0.561925
0.568637
0.576098
0.584302
0.593227
0.602836
0.613056
0.62387
0.635215
0.647105
0.659529
0.672503
0.686058
0.700207
0.714977
0.730344
0.746373
0.763091
0.780548
0.798792
0.81787
0.838024
0.859445
0.882386
0.907282
0.934611
0.965276
1.00013
1.04099
1.09087
1.15506
1.24529
1.31813
1.26407
0.867062
0.758475
0.758341
0.760251
0.762152
0.764032
0.765957
0.767929
0.769936
0.771962
0.773982
0.776006
0.778061
0.780215
0.782647
0.78563
0.789972
0.796919
0.808736
0.82897
0.862854
0.917446
1.00139
1.12327
1.28654
1.4806
1.67279
1.82248
1.90793
1.94085
1.95325
1.96101
1.96637
1.97048
1.97414
1.97755
1.98061
1.98291
1.98407
1.98447
1.98453
1.98423
1.98348
1.98232
1.98087
1.97925
1.97756
1.97589
1.97427
1.97269
1.97114
1.96961
1.96809
1.96656
0.408295
0.408246
0.408171
0.408229
0.408214
0.408259
0.408332
0.408465
0.408668
0.408951
0.409323
0.409791
0.410354
0.411013
0.411764
0.412611
0.413549
0.414579
0.415704
0.416926
0.418252
0.419693
0.421262
0.422985
0.424892
0.427016
0.42939
0.432028
0.434928
0.438078
0.441436
0.444987
0.448696
0.452554
0.456555
0.46067
0.464873
0.469117
0.473348
0.477512
0.481572
0.485495
0.489255
0.49282
0.49616
0.499235
0.502018
0.504489
0.50664
0.508406
0.509741
0.510778
0.511617
0.512306
0.512878
0.513374
0.513835
0.514305
0.514821
0.515415
0.516098
0.51687
0.51773
0.518674
0.51973
0.520913
0.522249
0.523739
0.525401
0.527284
0.529419
0.531876
0.534703
0.537954
0.541662
0.545863
0.55059
0.55589
0.561812
0.568416
0.575746
0.58382
0.592622
0.602125
0.612286
0.62307
0.634428
0.646342
0.658777
0.671738
0.685262
0.699373
0.714086
0.729381
0.745318
0.761934
0.779315
0.797528
0.816654
0.836935
0.858588
0.88184
0.907157
0.934979
0.966083
1.00162
1.04315
1.09388
1.15981
1.25149
1.32086
1.23731
0.843142
0.756091
0.756622
0.758546
0.760414
0.762262
0.764152
0.766083
0.768042
0.770015
0.771976
0.773935
0.775925
0.778006
0.780368
0.783289
0.787569
0.794496
0.806355
0.826716
0.860843
0.91581
1.00024
1.12256
1.28592
1.47923
1.66961
1.81709
1.9004
1.93257
1.94519
1.95336
1.95907
1.96347
1.96749
1.97146
1.97532
1.97874
1.98118
1.9825
1.98304
1.98311
1.98273
1.98187
1.98065
1.97917
1.97756
1.97591
1.97429
1.97271
1.97115
1.96961
1.96809
1.96656
0.408789
0.408685
0.408628
0.408668
0.408653
0.40869
0.408753
0.408871
0.409058
0.409323
0.409675
0.41012
0.410658
0.411292
0.412019
0.412843
0.413763
0.414778
0.41589
0.417099
0.418411
0.419837
0.421388
0.423094
0.424988
0.427101
0.429468
0.432099
0.43499
0.438129
0.441473
0.44501
0.44871
0.452564
0.456565
0.460682
0.46489
0.469135
0.473366
0.477529
0.481589
0.48551
0.48927
0.492835
0.496175
0.499252
0.502038
0.504514
0.506667
0.508434
0.509775
0.510817
0.511658
0.512348
0.512923
0.513423
0.513888
0.514363
0.514883
0.515482
0.516166
0.516937
0.517793
0.518732
0.519787
0.520967
0.5223
0.523789
0.52545
0.527333
0.529464
0.531917
0.534736
0.537978
0.541681
0.545883
0.55061
0.555901
0.561778
0.568303
0.575515
0.583446
0.592093
0.601439
0.611465
0.622145
0.633431
0.645291
0.657677
0.670582
0.684048
0.698103
0.712764
0.728031
0.743947
0.760566
0.778009
0.796333
0.815675
0.836257
0.858236
0.881873
0.907607
0.935902
0.967512
1.00352
1.04579
1.09766
1.16507
1.25959
1.32013
1.20501
0.819447
0.753537
0.754546
0.756462
0.758298
0.760118
0.761976
0.76387
0.765786
0.767709
0.769614
0.771512
0.773437
0.775449
0.777743
0.780607
0.78483
0.791749
0.803663
0.824176
0.858581
0.913972
0.998946
1.12178
1.28532
1.4779
1.66648
1.81163
1.89274
1.92404
1.93678
1.94533
1.95139
1.9561
1.96044
1.96483
1.96927
1.97353
1.97714
1.97968
1.9811
1.98165
1.98163
1.98114
1.98021
1.97895
1.97749
1.97591
1.97431
1.97273
1.97117
1.96963
1.96809
1.96656
0.409359
0.409219
0.40918
0.409202
0.409183
0.409213
0.409265
0.409372
0.409545
0.409791
0.41012
0.410538
0.411046
0.411652
0.412352
0.413153
0.414053
0.41505
0.416145
0.417337
0.418631
0.420037
0.42157
0.423259
0.425139
0.427241
0.429599
0.432221
0.435101
0.438225
0.44155
0.445069
0.448754
0.452598
0.456595
0.460712
0.464919
0.469162
0.473391
0.477552
0.48161
0.485531
0.489289
0.492851
0.49619
0.499268
0.502058
0.50454
0.506698
0.508466
0.509814
0.51086
0.511703
0.512395
0.512972
0.513476
0.513946
0.514427
0.514953
0.515556
0.516239
0.517007
0.517856
0.51879
0.519843
0.521019
0.52235
0.523837
0.525496
0.527378
0.529506
0.531956
0.534766
0.537997
0.541694
0.545894
0.550625
0.555918
0.56178
0.568263
0.575394
0.583207
0.591708
0.600895
0.610763
0.621299
0.632458
0.644211
0.656512
0.66935
0.682765
0.696784
0.711435
0.726734
0.742713
0.759448
0.777065
0.795603
0.815224
0.836118
0.858457
0.882397
0.908513
0.937262
0.969167
1.00579
1.04878
1.10152
1.17132
1.26635
1.32179
1.16335
0.797188
0.750746
0.752059
0.753963
0.75577
0.757566
0.759397
0.761258
0.763135
0.765013
0.766868
0.76871
0.770576
0.772526
0.774758
0.777572
0.781749
0.788676
0.800668
0.821366
0.856095
0.911975
0.99758
1.12103
1.28486
1.47672
1.66349
1.80616
1.88498
1.91535
1.92812
1.93695
1.94334
1.94837
1.95302
1.95777
1.96267
1.96754
1.97203
1.97574
1.97835
1.97976
1.9802
1.98008
1.9795
1.97852
1.97727
1.97584
1.97431
1.97275
1.9712
1.96965
1.9681
1.96657
0.410012
0.40985
0.409825
0.409833
0.409808
0.409831
0.409874
0.40997
0.410128
0.410354
0.410658
0.411046
0.411523
0.412099
0.412771
0.413547
0.414424
0.415399
0.416471
0.41764
0.41891
0.420294
0.421806
0.423476
0.425342
0.427434
0.429782
0.432394
0.435258
0.438363
0.441666
0.445162
0.448829
0.45266
0.45665
0.460761
0.464964
0.469204
0.473429
0.477587
0.481644
0.485562
0.489317
0.492874
0.49621
0.499287
0.502081
0.504568
0.506732
0.508502
0.509856
0.510907
0.511751
0.512445
0.513026
0.513535
0.514012
0.514501
0.515033
0.515641
0.516321
0.517085
0.517926
0.518854
0.519904
0.521074
0.522402
0.523883
0.525539
0.52742
0.529544
0.531991
0.534793
0.538012
0.541699
0.545892
0.550618
0.555917
0.561777
0.568247
0.575342
0.58308
0.59148
0.600548
0.610276
0.620679
0.631702
0.643336
0.655553
0.668341
0.681737
0.695763
0.710454
0.72583
0.741927
0.758837
0.776663
0.79541
0.81528
0.83644
0.859035
0.883251
0.909671
0.938699
0.971068
1.00811
1.05186
1.10602
1.17818
1.2743
1.3187
1.11396
0.77796
0.747638
0.749149
0.751031
0.752811
0.754587
0.756393
0.758226
0.76007
0.76191
0.763722
0.765517
0.767334
0.769233
0.771415
0.774191
0.778342
0.7853
0.797404
0.818329
0.853444
0.909896
0.996234
1.12043
1.28464
1.47583
1.66069
1.8007
1.87714
1.90655
1.91926
1.92829
1.93494
1.94027
1.94523
1.95032
1.95561
1.96096
1.96611
1.97073
1.97448
1.97708
1.97835
1.97868
1.97846
1.97783
1.97685
1.97564
1.97425
1.97275
1.97122
1.96967
1.96812
1.96658
0.410753
0.410576
0.410562
0.410558
0.410528
0.410547
0.410581
0.410665
0.410808
0.411013
0.411292
0.411652
0.412099
0.412645
0.413289
0.414038
0.414888
0.415836
0.41688
0.418021
0.419262
0.420619
0.422109
0.42376
0.425612
0.427691
0.430027
0.432625
0.435468
0.438549
0.441825
0.445294
0.448939
0.452752
0.45673
0.460833
0.465028
0.469261
0.473482
0.477638
0.481692
0.485606
0.489355
0.492905
0.496237
0.499313
0.50211
0.504602
0.506771
0.508544
0.509903
0.510958
0.511804
0.512501
0.513086
0.513601
0.514085
0.514583
0.515122
0.515733
0.516409
0.517168
0.518
0.518923
0.519969
0.521132
0.522456
0.52393
0.525582
0.527459
0.529579
0.532023
0.534814
0.53802
0.541694
0.545869
0.550583
0.555882
0.561743
0.568217
0.575306
0.583009
0.591358
0.600361
0.609999
0.620312
0.631234
0.642773
0.65493
0.667689
0.681095
0.695159
0.709916
0.725388
0.741614
0.758677
0.776672
0.795588
0.815652
0.836982
0.859728
0.884197
0.910822
0.940134
0.972864
1.01047
1.05533
1.11063
1.18605
1.27891
1.31864
1.0529
0.762232
0.744193
0.745807
0.747668
0.749427
0.751185
0.752973
0.754783
0.756602
0.758413
0.760194
0.761956
0.763738
0.765602
0.767752
0.770508
0.774661
0.781681
0.793936
0.815143
0.850713
0.907828
0.995008
1.12008
1.2847
1.47526
1.65812
1.79529
1.86924
1.89765
1.91026
1.91941
1.92625
1.93183
1.93708
1.94249
1.94813
1.95389
1.95956
1.96487
1.96954
1.97327
1.97575
1.97688
1.9771
1.97682
1.97617
1.97522
1.97405
1.97269
1.97122
1.96969
1.96815
1.9666
0.411586
0.411398
0.411392
0.411379
0.411344
0.411357
0.411383
0.411454
0.41158
0.411764
0.412019
0.412352
0.412771
0.413289
0.413905
0.414624
0.415444
0.416359
0.41737
0.418477
0.419687
0.421015
0.42248
0.424113
0.425949
0.428016
0.430337
0.432917
0.435737
0.438789
0.442034
0.445473
0.449091
0.452884
0.456846
0.460936
0.465123
0.469348
0.473562
0.477714
0.481763
0.48567
0.489411
0.492953
0.496279
0.499352
0.502151
0.504646
0.506817
0.508591
0.509955
0.511014
0.511862
0.512562
0.513152
0.513673
0.514166
0.514672
0.515217
0.51583
0.516502
0.517256
0.518078
0.518999
0.520039
0.521195
0.522515
0.52398
0.525626
0.5275
0.529613
0.53205
0.534829
0.53802
0.541676
0.545827
0.550521
0.555808
0.561663
0.568146
0.575243
0.582935
0.591274
0.600254
0.609848
0.620125
0.630987
0.642472
0.654602
0.667351
0.680786
0.694891
0.709713
0.725272
0.741604
0.758788
0.776878
0.795921
0.816139
0.83751
0.860398
0.885076
0.911864
0.94147
0.974619
1.0131
1.05865
1.11582
1.19492
1.28374
1.31105
0.987812
0.749845
0.740385
0.742086
0.743922
0.745664
0.747414
0.749192
0.75099
0.752794
0.75459
0.756353
0.758097
0.759862
0.76171
0.763849
0.766607
0.770791
0.777906
0.790354
0.811896
0.847989
0.905851
0.993969
1.11998
1.28508
1.47504
1.65576
1.78991
1.86128
1.88867
1.90114
1.91035
1.91733
1.92309
1.92859
1.93429
1.94026
1.9464
1.9525
1.95836
1.96375
1.9684
1.97202
1.97435
1.97534
1.97549
1.97519
1.97455
1.97365
1.9725
1.97117
1.9697
1.96817
1.96663
0.41251
0.412313
0.412315
0.412295
0.412255
0.412261
0.412277
0.412336
0.412445
0.412611
0.412843
0.413153
0.413547
0.414038
0.414624
0.415311
0.416096
0.416975
0.417948
0.419018
0.420191
0.421488
0.422927
0.424539
0.426359
0.42841
0.430714
0.433272
0.436063
0.439083
0.442293
0.445698
0.449286
0.453055
0.456998
0.461075
0.46525
0.469466
0.473673
0.477818
0.48186
0.48576
0.489492
0.493026
0.496347
0.499416
0.502215
0.504709
0.506879
0.508651
0.510018
0.51108
0.51193
0.512632
0.513225
0.51375
0.51425
0.514762
0.51531
0.515924
0.516591
0.517343
0.518158
0.519079
0.520113
0.521264
0.52258
0.524036
0.525676
0.527544
0.529648
0.532074
0.534836
0.53801
0.541642
0.545765
0.550435
0.555701
0.561539
0.568023
0.575124
0.582819
0.591169
0.600148
0.609731
0.620004
0.630836
0.642305
0.654431
0.66718
0.680647
0.694773
0.709652
0.725263
0.741658
0.758931
0.777072
0.796231
0.816519
0.837936
0.861004
0.885819
0.912884
0.94274
0.976586
1.01573
1.06229
1.12205
1.2048
1.28805
1.29218
0.92259
0.740343
0.736302
0.738068
0.739884
0.741623
0.743374
0.745154
0.746952
0.748755
0.750548
0.752309
0.754051
0.755814
0.757663
0.759809
0.762588
0.76683
0.774068
0.786744
0.808666
0.845343
0.904024
0.993166
1.12022
1.28588
1.4752
1.65361
1.78455
1.85326
1.87961
1.89192
1.90115
1.90822
1.91412
1.9198
1.92574
1.93202
1.9385
1.94499
1.95131
1.95727
1.96265
1.96721
1.9707
1.97289
1.97378
1.97389
1.97359
1.97299
1.97211
1.97098
1.96965
1.96818
1.96665
0.413521
0.413313
0.413323
0.413298
0.413254
0.413251
0.413258
0.413305
0.413398
0.413549
0.413763
0.414053
0.414424
0.414888
0.415444
0.416096
0.416843
0.417682
0.418614
0.419644
0.42078
0.422044
0.423456
0.425046
0.426848
0.428881
0.431163
0.433695
0.436452
0.439435
0.442606
0.445975
0.449531
0.453273
0.457195
0.461255
0.465416
0.469621
0.473818
0.477954
0.481987
0.485878
0.489602
0.493128
0.496442
0.499506
0.5023
0.50479
0.506955
0.508723
0.51009
0.511154
0.512006
0.51271
0.513307
0.513836
0.514341
0.514856
0.515406
0.516017
0.516681
0.517431
0.518241
0.519162
0.520189
0.521336
0.522648
0.524093
0.525727
0.527587
0.529679
0.53209
0.534835
0.537986
0.541591
0.545687
0.550331
0.555569
0.561384
0.567856
0.574948
0.582646
0.591007
0.59999
0.609579
0.619859
0.630676
0.642155
0.654281
0.667037
0.680528
0.694656
0.709589
0.725218
0.741673
0.758989
0.777153
0.796422
0.816722
0.838308
0.861507
0.886542
0.91388
0.944121
0.978755
1.01834
1.06686
1.12894
1.21584
1.29282
1.2573
0.862383
0.733001
0.732047
0.733867
0.73568
0.737427
0.739193
0.740986
0.742796
0.744609
0.74641
0.748179
0.74993
0.751704
0.753565
0.755731
0.758544
0.762861
0.770242
0.783172
0.805511
0.842825
0.902403
0.992655
1.12084
1.2871
1.47569
1.65166
1.77921
1.84519
1.8705
1.88262
1.89185
1.89896
1.90494
1.91075
1.91689
1.92343
1.93023
1.93707
1.9438
1.95023
1.9562
1.9615
1.96595
1.96932
1.9714
1.97223
1.97232
1.97205
1.97147
1.9706
1.96947
1.96813
1.96666
0.414619
0.414399
0.414416
0.414388
0.414338
0.414326
0.414324
0.41436
0.414442
0.414579
0.414778
0.41505
0.415399
0.415836
0.416359
0.416975
0.417682
0.418479
0.419369
0.420358
0.421456
0.422687
0.424072
0.42564
0.427422
0.429434
0.43169
0.43419
0.436909
0.43985
0.44298
0.446309
0.449832
0.453545
0.457444
0.461485
0.46563
0.469822
0.474007
0.478132
0.482155
0.486036
0.489751
0.49327
0.496576
0.499632
0.502418
0.504899
0.507056
0.508817
0.510182
0.511248
0.512099
0.512804
0.513404
0.513935
0.514442
0.514954
0.515501
0.516105
0.516763
0.517511
0.518318
0.51924
0.52026
0.521408
0.522719
0.524154
0.525784
0.527635
0.529711
0.532105
0.534828
0.537951
0.541524
0.545593
0.550207
0.555413
0.561204
0.567651
0.57472
0.582414
0.590775
0.599754
0.609355
0.619637
0.63045
0.64195
0.654072
0.666846
0.680346
0.694477
0.709454
0.725078
0.741594
0.758904
0.777108
0.796452
0.816801
0.838643
0.861921
0.887301
0.914903
0.945823
0.980965
1.02166
1.07201
1.13661
1.22777
1.29622
1.20478
0.810469
0.727097
0.727725
0.729623
0.73143
0.733198
0.734988
0.736803
0.738633
0.740463
0.74228
0.744063
0.745828
0.747617
0.749495
0.751685
0.754538
0.75894
0.766475
0.779679
0.802469
0.84047
0.901007
0.992461
1.12186
1.28875
1.47655
1.64989
1.77388
1.83709
1.86133
1.87326
1.88245
1.88956
1.89559
1.90149
1.90778
1.91454
1.92161
1.92877
1.93586
1.94271
1.94917
1.95508
1.96029
1.96463
1.96791
1.96991
1.9707
1.9708
1.97055
1.96997
1.96909
1.96795
1.96661
0.415802
0.41557
0.415594
0.415562
0.415506
0.415485
0.415477
0.415505
0.415576
0.415704
0.41589
0.416145
0.416471
0.41688
0.41737
0.417948
0.418614
0.419369
0.420216
0.421165
0.422226
0.423425
0.424783
0.426328
0.428087
0.430075
0.432299
0.434762
0.437437
0.440332
0.443417
0.446705
0.450192
0.453876
0.45775
0.461771
0.465899
0.470075
0.474246
0.478358
0.482368
0.486239
0.489944
0.493453
0.496748
0.499791
0.502565
0.505033
0.507179
0.508931
0.510295
0.511361
0.512214
0.512922
0.513524
0.514058
0.514564
0.515069
0.515608
0.516199
0.51685
0.517596
0.518403
0.519327
0.520339
0.521488
0.522796
0.524222
0.525846
0.527683
0.529738
0.532111
0.53481
0.537899
0.541441
0.545486
0.550067
0.555239
0.561007
0.567419
0.574455
0.58214
0.590481
0.599446
0.609056
0.619326
0.630143
0.641661
0.653773
0.666575
0.680072
0.69422
0.709221
0.724834
0.741406
0.758704
0.77701
0.796392
0.816863
0.838928
0.862355
0.888131
0.916004
0.947753
0.983272
1.02573
1.07784
1.14591
1.24084
1.29596
1.13659
0.768663
0.722122
0.723468
0.725409
0.72723
0.729027
0.730847
0.732688
0.734541
0.736392
0.738227
0.740024
0.741804
0.743607
0.745501
0.747715
0.750608
0.755099
0.762796
0.776294
0.799569
0.83831
0.899878
0.992644
1.12329
1.29083
1.47777
1.64831
1.76859
1.82895
1.85212
1.86383
1.87296
1.88006
1.8861
1.89206
1.89847
1.90539
1.91268
1.92012
1.92753
1.93475
1.94164
1.94806
1.9539
1.95903
1.96329
1.9665
1.96844
1.96922
1.96932
1.96907
1.96849
1.96759
1.96644
0.417077
0.416831
0.41686
0.416826
0.416765
0.416736
0.416722
0.416744
0.416808
0.416926
0.417099
0.417337
0.41764
0.418021
0.418477
0.419018
0.419644
0.420358
0.421165
0.422076
0.423102
0.424271
0.425604
0.427124
0.428858
0.430815
0.433001
0.435419
0.438045
0.440889
0.443927
0.447173
0.450625
0.454278
0.458127
0.462127
0.466235
0.470393
0.474547
0.478644
0.48264
0.486499
0.490191
0.493686
0.496966
0.499992
0.50275
0.505203
0.507335
0.509078
0.51044
0.511508
0.512362
0.513073
0.513677
0.514209
0.514709
0.515201
0.515725
0.516297
0.516939
0.51768
0.518488
0.519414
0.520419
0.52157
0.522874
0.524291
0.525912
0.527734
0.529768
0.532119
0.534792
0.537846
0.541355
0.545373
0.549916
0.55505
0.560792
0.567161
0.574162
0.58183
0.590136
0.59908
0.608689
0.618937
0.629768
0.641289
0.653393
0.666226
0.679715
0.693907
0.708905
0.724541
0.741152
0.758462
0.77689
0.796302
0.816967
0.839182
0.862895
0.888993
0.917316
0.949804
0.986152
1.03025
1.08448
1.15744
1.25254
1.29343
1.05033
0.739849
0.717655
0.719335
0.7213
0.723143
0.724974
0.726824
0.728693
0.730569
0.73244
0.734289
0.736099
0.73789
0.739702
0.741607
0.743841
0.746771
0.751352
0.759223
0.773034
0.796828
0.83636
0.899029
0.993156
1.12514
1.29335
1.47932
1.64688
1.76331
1.82079
1.84288
1.85436
1.86339
1.87046
1.8765
1.88249
1.88897
1.89602
1.90349
1.91116
1.91884
1.92638
1.93365
1.94052
1.94689
1.95266
1.95773
1.96195
1.96511
1.96701
1.96778
1.96788
1.96761
1.967
1.96609
0.41845
0.41819
0.418222
0.418187
0.418125
0.418089
0.418072
0.418089
0.418145
0.418252
0.418411
0.418631
0.41891
0.419262
0.419687
0.420191
0.42078
0.421456
0.422226
0.423102
0.424098
0.425239
0.426546
0.42804
0.429743
0.431662
0.433802
0.436167
0.438737
0.441529
0.444518
0.447723
0.45114
0.454764
0.458588
0.462564
0.466651
0.470789
0.474923
0.479003
0.482982
0.486824
0.490498
0.493975
0.497234
0.50024
0.502979
0.505414
0.507532
0.509266
0.510629
0.5117
0.512558
0.513272
0.513875
0.514403
0.514892
0.515364
0.515868
0.516417
0.51705
0.517783
0.518595
0.519519
0.520519