/*--------------------------------*- C++ -*----------------------------------*\
  =========                 |
  \\      /  F ield         | OpenFOAM: The Open Source CFD Toolbox
   \\    /   O peration     | Website:  https://openfoam.org
    \\  /    A nd           | Version:  13
     \\/     M anipulation  |
\*---------------------------------------------------------------------------*/
FoamFile
{
    format      ascii;
    class       volScalarField;
    location    "0.0018";
    object      T;
}
// * * * * * * * * * * * * * * * * * * * * * * * * * * * * * * * * * * * * * //

dimensions      [0 0 0 1 0 0 0];

internalField   nonuniform List<scalar> 
33334
(
2454.87
2454.97
2454.88
2455.04
2455.11
2455.32
2455.48
2455.73
2456.13
2456.67
2457.35
2458.16
2459.13
2460.28
2461.64
2463.23
2465.06
2467.15
2469.53
2472.22
2475.25
2478.61
2482.33
2486.42
2490.86
2495.67
2500.84
2506.34
2512.11
2518.07
2524.12
2530.18
2536.13
2541.94
2547.54
2552.88
2557.93
2562.65
2567.06
2571.23
2575.22
2579.13
2582.99
2586.83
2590.69
2594.6
2598.6
2602.73
2606.98
2611.22
2615.34
2619.56
2623.82
2628.03
2632.17
2636.25
2640.23
2644.08
2647.76
2651.22
2654.43
2657.38
2660.07
2662.54
2664.85
2667.12
2669.46
2671.78
2674.2
2676.81
2679.73
2683.07
2686.95
2691.46
2696.67
2702.6
2709.26
2716.64
2724.71
2733.38
2741.98
2751.33
2761.08
2771.72
2782.37
2794.3
2806.88
2820.12
2833.99
2848.24
2862.85
2877.8
2893.06
2908.63
2924.56
2940.83
2957.59
2974.8
2992.56
3010.95
3030.13
3050.17
3071.28
3093.67
3117.73
3144.34
3174.29
3209.35
3250.74
3290.29
3096.21
1811.43
1025.9
893.392
890.726
890.087
888.708
887.115
886.476
886.068
885.724
885.43
885.21
885.072
884.99
884.859
884.519
883.624
881.425
876.6
866.986
849.48
820.382
776.439
716.578
643.76
565.732
493.419
436.857
400.652
382.825
377.136
376.417
376.491
376.616
376.8
376.982
377.066
377.059
376.997
376.858
376.663
376.452
376.258
376.095
375.962
375.846
375.734
375.618
375.494
375.364
375.233
375.105
374.983
374.868
374.761
2454.97
2455.47
2455.32
2455.33
2455.31
2455.39
2455.56
2455.81
2456.14
2456.6
2457.2
2457.96
2458.9
2460.02
2461.36
2462.94
2464.75
2466.82
2469.18
2471.85
2474.85
2478.19
2481.89
2485.95
2490.37
2495.16
2500.3
2505.77
2511.53
2517.47
2523.5
2529.55
2535.48
2541.29
2546.88
2552.22
2557.27
2561.99
2566.41
2570.58
2574.59
2578.5
2582.38
2586.24
2590.12
2594.04
2598.04
2602.16
2606.4
2610.66
2614.84
2619
2623.24
2627.46
2631.61
2635.69
2639.68
2643.55
2647.25
2650.73
2653.96
2656.92
2659.62
2662.1
2664.41
2666.66
2668.97
2671.27
2673.65
2676.21
2679.06
2682.31
2686.06
2690.4
2695.43
2701.13
2707.58
2714.8
2722.79
2731.6
2741.84
2752.09
2762.6
2773.38
2784.99
2796.31
2808.82
2821.81
2835.36
2849.51
2864.23
2879.62
2895.39
2911.62
2928.21
2945.21
2962.55
2980.5
2998.9
3017.77
3037.29
3057.71
3079.4
3102.4
3127.19
3154.47
3184.78
3219.04
3258.02
3294.09
3104.19
1822.64
1030.1
890.661
886.988
886.246
886.052
886.395
886.233
885.91
885.601
885.358
885.194
885.095
885.034
884.927
884.604
883.731
881.567
876.796
867.265
849.867
820.888
777.053
717.266
644.461
566.384
493.946
437.225
400.985
383.175
377.246
376.297
376.381
376.528
376.721
376.918
377.029
377.044
376.992
376.857
376.663
376.452
376.258
376.095
375.962
375.846
375.734
375.617
375.493
375.364
375.232
375.104
374.982
374.867
374.76
2454.88
2455.32
2455.13
2455.15
2455.24
2455.29
2455.42
2455.65
2456
2456.49
2457.12
2457.91
2458.87
2460.01
2461.36
2462.94
2464.77
2466.86
2469.23
2471.91
2474.91
2478.25
2481.95
2486.01
2490.42
2495.2
2500.34
2505.8
2511.54
2517.48
2523.5
2529.54
2535.48
2541.29
2546.89
2552.24
2557.3
2562.03
2566.46
2570.63
2574.63
2578.54
2582.41
2586.26
2590.12
2594.02
2598
2602.09
2606.29
2610.55
2614.73
2618.88
2623.09
2627.29
2631.44
2635.53
2639.53
2643.42
2647.15
2650.67
2653.94
2656.93
2659.67
2662.18
2664.53
2666.83
2669.15
2671.55
2674.04
2676.7
2679.66
2683.01
2686.86
2691.28
2696.35
2702.17
2708.83
2716.43
2724.78
2733.69
2742.77
2752.27
2762.33
2773.07
2785.24
2797.25
2809.71
2822.63
2836.08
2850.05
2864.46
2879.34
2894.67
2910.43
2926.55
2943.1
2960.08
2977.61
2995.73
3014.54
3034.2
3054.74
3076.52
3099.7
3124.65
3151.96
3182.32
3216.63
3257.43
3294.04
3087.53
1799.63
1021.27
890.113
887.339
887.126
887.03
886.806
886.438
886.049
885.703
885.422
885.224
885.1
885.015
884.891
884.549
883.657
881.471
876.675
867.108
849.66
820.62
776.722
716.883
644.051
565.969
493.543
436.84
400.642
382.837
376.882
376.047
376.187
376.399
376.616
376.83
376.968
377
376.966
376.848
376.661
376.451
376.257
376.095
375.961
375.845
375.732
375.616
375.492
375.362
375.231
375.103
374.981
374.866
374.759
2455.04
2455.33
2455.15
2455.08
2455.1
2455.19
2455.42
2455.72
2456.09
2456.57
2457.18
2457.95
2458.89
2460.02
2461.37
2462.94
2464.77
2466.86
2469.23
2471.9
2474.9
2478.25
2481.94
2485.99
2490.41
2495.19
2500.32
2505.79
2511.53
2517.48
2523.52
2529.56
2535.52
2541.35
2546.96
2552.33
2557.39
2562.13
2566.56
2570.74
2574.76
2578.68
2582.57
2586.44
2590.32
2594.23
2598.22
2602.31
2606.52
2610.79
2614.98
2619.13
2623.34
2627.54
2631.69
2635.78
2639.79
2643.69
2647.43
2650.95
2654.23
2657.25
2660.02
2662.56
2664.96
2667.3
2669.69
2672.16
2674.73
2677.5
2680.56
2684
2687.94
2692.43
2697.57
2703.43
2709.92
2716.92
2724.56
2732.98
2742
2751.9
2762.61
2773.76
2785.68
2797.94
2810.55
2823.64
2837.18
2851.15
2865.51
2880.26
2895.48
2911.18
2927.3
2943.85
2960.9
2978.48
2996.71
3015.67
3035.42
3056.12
3077.96
3101.2
3126.16
3153.35
3183.59
3217.86
3258.29
3295.33
3064.55
1767.39
1010.02
889.766
887.531
887.276
886.957
886.574
886.156
885.759
885.411
885.125
884.921
884.796
884.706
884.581
884.234
883.33
881.118
876.288
866.662
849.125
819.971
775.956
716.029
643.163
565.114
492.794
436.243
400.21
382.509
376.511
375.713
375.878
376.174
376.464
376.707
376.877
376.938
376.921
376.826
376.654
376.45
376.257
376.095
375.961
375.844
375.732
375.615
375.491
375.362
375.231
375.102
374.98
374.866
374.758
2455.11
2455.31
2455.24
2455.1
2455.06
2455.13
2455.33
2455.64
2456.03
2456.53
2457.15
2457.92
2458.87
2460
2461.34
2462.92
2464.74
2466.83
2469.2
2471.87
2474.87
2478.21
2481.9
2485.94
2490.35
2495.12
2500.26
2505.73
2511.48
2517.44
2523.49
2529.55
2535.52
2541.36
2547
2552.37
2557.44
2562.19
2566.62
2570.81
2574.85
2578.81
2582.73
2586.63
2590.53
2594.47
2598.47
2602.56
2606.79
2611.08
2615.25
2619.4
2623.61
2627.81
2631.97
2636.07
2640.11
2644.03
2647.79
2651.35
2654.66
2657.72
2660.53
2663.14
2665.59
2668
2670.46
2673
2675.65
2678.51
2681.65
2685.17
2689.14
2693.61
2698.69
2704.42
2710.89
2717.97
2725.69
2734.16
2743.33
2753.24
2763.97
2775.26
2786.94
2799.26
2811.93
2825.07
2838.6
2852.55
2866.93
2881.72
2896.98
2912.72
2928.93
2945.61
2962.82
2980.58
2999
3018.14
3038.01
3058.82
3080.67
3103.87
3128.68
3155.62
3185.68
3220.07
3259.92
3295.91
3029.28
1723.95
996.55
889.539
887.609
887.244
886.812
886.366
885.937
885.541
885.19
884.9
884.686
884.551
884.446
884.303
883.939
883.004
880.755
875.872
866.164
848.507
819.194
774.993
714.886
641.9
563.853
491.684
435.37
399.561
382.05
376.107
375.318
375.481
375.847
376.236
376.547
376.754
376.85
376.852
376.786
376.636
376.444
376.256
376.095
375.962
375.845
375.732
375.615
375.491
375.361
375.23
375.102
374.98
374.865
374.758
2455.32
2455.39
2455.29
2455.19
2455.13
2455.21
2455.38
2455.68
2456.07
2456.57
2457.19
2457.97
2458.91
2460.04
2461.38
2462.95
2464.77
2466.85
2469.21
2471.88
2474.88
2478.21
2481.88
2485.92
2490.32
2495.08
2500.21
2505.68
2511.44
2517.39
2523.45
2529.52
2535.5
2541.35
2547
2552.39
2557.47
2562.23
2566.68
2570.9
2574.97
2578.97
2582.93
2586.87
2590.82
2594.79
2598.82
2602.94
2607.19
2611.49
2615.66
2619.81
2624
2628.2
2632.37
2636.5
2640.56
2644.51
2648.31
2651.9
2655.26
2658.36
2661.22
2663.87
2666.38
2668.85
2671.37
2673.97
2676.69
2679.62
2682.84
2686.41
2690.42
2694.93
2700
2705.68
2712.09
2719.21
2727.08
2735.69
2745.04
2755.04
2765.73
2777.01
2788.68
2800.98
2813.66
2826.8
2840.36
2854.36
2868.79
2883.66
2899.02
2914.84
2931.16
2947.98
2965.32
2983.19
3001.69
3020.86
3040.68
3061.35
3082.96
3105.91
3130.51
3157.32
3187.29
3221.96
3261.81
3295.64
2984.51
1674.62
981.966
889.074
887.391
886.95
886.471
886.008
885.576
885.177
884.818
884.518
884.292
884.145
884.028
883.868
883.488
882.518
880.231
875.284
865.475
847.669
818.15
773.703
713.355
640.219
562.198
490.253
434.27
398.747
381.477
375.667
374.882
375.034
375.435
375.919
376.322
376.596
376.732
376.76
376.722
376.601
376.427
376.25
376.094
375.962
375.846
375.733
375.615
375.491
375.361
375.23
375.102
374.98
374.865
374.758
2455.48
2455.56
2455.42
2455.42
2455.33
2455.38
2455.52
2455.79
2456.16
2456.65
2457.26
2458.03
2458.96
2460.09
2461.43
2463
2464.81
2466.89
2469.25
2471.91
2474.9
2478.22
2481.89
2485.91
2490.29
2495.05
2500.17
2505.64
2511.4
2517.35
2523.41
2529.48
2535.48
2541.34
2547.01
2552.41
2557.52
2562.3
2566.78
2571.03
2575.13
2579.17
2583.17
2587.17
2591.16
2595.18
2599.25
2603.41
2607.7
2612.01
2616.18
2620.33
2624.53
2628.74
2632.92
2637.07
2641.16
2645.14
2648.97
2652.6
2655.99
2659.13
2662.03
2664.73
2667.3
2669.82
2672.4
2675.05
2677.84
2680.84
2684.12
2687.75
2691.82
2696.37
2701.46
2707.13
2713.47
2720.57
2728.47
2737.15
2746.61
2756.73
2767.49
2778.82
2790.59
2802.9
2815.61
2828.78
2842.39
2856.46
2870.97
2885.92
2901.35
2917.23
2933.6
2950.45
2967.79
2985.62
3003.98
3022.97
3042.6
3063.05
3084.43
3107.17
3131.73
3158.67
3188.87
3223.72
3264.33
3294.62
2923.7
1617.87
966.752
888.441
887.018
886.55
886.06
885.594
885.158
884.75
884.381
884.069
883.83
883.666
883.533
883.352
882.949
881.938
879.601
874.572
864.637
846.641
816.863
772.106
711.465
638.159
560.187
488.531
432.949
397.795
380.804
375.172
374.416
374.563
374.975
375.52
376.014
376.373
376.578
376.644
376.628
376.542
376.394
376.233
376.088
375.962
375.847
375.734
375.616
375.491
375.361
375.23
375.102
374.98
374.865
374.758
2455.73
2455.81
2455.65
2455.72
2455.64
2455.68
2455.79
2456.02
2456.36
2456.81
2457.41
2458.16
2459.08
2460.2
2461.53
2463.08
2464.89
2466.96
2469.31
2471.97
2474.95
2478.27
2481.92
2485.92
2490.29
2495.04
2500.16
2505.62
2511.37
2517.33
2523.38
2529.45
2535.45
2541.32
2547.01
2552.44
2557.57
2562.39
2566.9
2571.19
2575.34
2579.42
2583.48
2587.53
2591.58
2595.65
2599.78
2603.99
2608.31
2612.64
2616.83
2620.99
2625.19
2629.41
2633.61
2637.78
2641.89
2645.9
2649.76
2653.42
2656.85
2660.03
2662.96
2665.71
2668.32
2670.91
2673.53
2676.25
2679.09
2682.15
2685.49
2689.19
2693.31
2697.92
2703.05
2708.75
2715.08
2722.13
2729.98
2738.62
2748.07
2758.24
2769.06
2780.48
2792.36
2804.73
2817.5
2830.73
2844.41
2858.55
2873.13
2888.13
2903.59
2919.45
2935.77
2952.53
2969.74
2987.42
3005.58
3024.37
3043.85
3064.18
3085.54
3108.27
3132.97
3160.1
3190.76
3225.9
3267.01
3294.32
2846.01
1554.31
951.982
887.687
886.517
886.048
885.557
885.087
884.642
884.225
883.843
883.517
883.263
883.083
882.933
882.727
882.297
881.244
878.847
873.72
863.635
845.411
815.324
770.205
709.231
635.747
557.851
486.546
431.429
396.733
380.059
374.621
373.918
374.069
374.489
375.069
375.63
376.07
376.361
376.494
376.508
376.457
376.34
376.2
376.07
375.955
375.846
375.735
375.618
375.493
375.362
375.23
375.102
374.98
374.865
374.758
2456.13
2456.14
2456
2456.09
2456.03
2456.07
2456.16
2456.36
2456.66
2457.09
2457.66
2458.39
2459.29
2460.39
2461.69
2463.23
2465.01
2467.06
2469.41
2472.06
2475.03
2478.33
2481.97
2485.96
2490.32
2495.06
2500.17
2505.63
2511.38
2517.33
2523.37
2529.44
2535.44
2541.32
2547.03
2552.49
2557.67
2562.52
2567.08
2571.42
2575.62
2579.76
2583.87
2587.98
2592.09
2596.22
2600.4
2604.66
2609.02
2613.37
2617.59
2621.77
2625.98
2630.2
2634.42
2638.61
2642.75
2646.78
2650.67
2654.36
2657.82
2661.04
2664.01
2666.8
2669.47
2672.11
2674.79
2677.56
2680.47
2683.59
2686.98
2690.74
2694.92
2699.58
2704.77
2710.52
2716.88
2723.91
2731.69
2740.24
2749.59
2759.7
2770.5
2781.94
2793.9
2806.36
2819.24
2832.56
2846.3
2860.47
2875.06
2890.06
2905.48
2921.28
2937.48
2954.11
2971.19
2988.74
3006.79
3025.5
3044.96
3065.32
3086.85
3109.82
3134.8
3162.23
3193.22
3229.11
3270.11
3292.98
2750.83
1486.05
937.631
886.853
885.92
885.444
884.951
884.475
884.021
883.592
883.197
882.858
882.589
882.391
882.222
881.992
881.531
880.433
877.966
872.729
862.471
843.986
813.545
768.018
706.679
633.01
555.219
484.322
429.742
395.578
379.266
374.026
373.385
373.546
373.98
374.585
375.192
375.694
376.062
376.283
376.357
376.341
376.263
376.147
376.037
375.938
375.841
375.735
375.619
375.494
375.363
375.231
375.102
374.98
374.865
374.758
2456.67
2456.6
2456.49
2456.57
2456.53
2456.57
2456.65
2456.81
2457.09
2457.48
2458.03
2458.73
2459.6
2460.67
2461.95
2463.45
2465.21
2467.25
2469.58
2472.21
2475.17
2478.46
2482.08
2486.05
2490.4
2495.12
2500.23
2505.69
2511.43
2517.37
2523.4
2529.46
2535.47
2541.36
2547.1
2552.61
2557.83
2562.73
2567.35
2571.74
2575.99
2580.19
2584.36
2588.53
2592.7
2596.89
2601.12
2605.43
2609.83
2614.21
2618.45
2622.65
2626.88
2631.12
2635.35
2639.57
2643.72
2647.79
2651.71
2655.43
2658.93
2662.18
2665.2
2668.03
2670.75
2673.45
2676.18
2679.01
2681.97
2685.14
2688.58
2692.39
2696.62
2701.35
2706.6
2712.42
2718.83
2725.89
2733.62
2742.09
2751.32
2761.31
2772.02
2783.38
2795.32
2807.81
2820.76
2834.16
2847.95
2862.12
2876.7
2891.69
2907.07
2922.8
2938.92
2955.46
2972.47
2989.99
3008.06
3026.85
3046.46
3067.04
3088.88
3112.22
3137.45
3165.26
3196.53
3232.94
3274.83
3288.05
2636.47
1412.16
924.372
885.953
885.201
884.718
884.221
883.738
883.276
882.836
882.43
882.077
881.793
881.578
881.39
881.136
880.642
879.498
876.954
871.596
861.145
842.369
811.536
765.562
703.83
629.973
552.323
481.884
427.919
394.347
378.435
373.4
372.819
372.993
373.446
374.075
374.715
375.263
375.69
375.99
376.15
376.188
376.154
376.074
375.984
375.905
375.824
375.73
375.619
375.496
375.365
375.232
375.103
374.98
374.865
374.758
2457.35
2457.2
2457.12
2457.18
2457.15
2457.19
2457.26
2457.41
2457.66
2458.03
2458.54
2459.21
2460.05
2461.07
2462.31
2463.79
2465.52
2467.53
2469.84
2472.45
2475.39
2478.66
2482.26
2486.22
2490.55
2495.26
2500.36
2505.81
2511.54
2517.47
2523.5
2529.55
2535.57
2541.49
2547.26
2552.81
2558.09
2563.05
2567.72
2572.17
2576.49
2580.74
2584.98
2589.2
2593.43
2597.67
2601.95
2606.31
2610.74
2615.15
2619.43
2623.66
2627.9
2632.16
2636.41
2640.65
2644.83
2648.93
2652.88
2656.64
2660.18
2663.47
2666.53
2669.4
2672.18
2674.92
2677.71
2680.58
2683.59
2686.82
2690.31
2694.17
2698.45
2703.23
2708.54
2714.43
2720.91
2728.01
2735.76
2744.18
2753.33
2763.19
2773.76
2784.99
2796.83
2809.25
2822.19
2835.58
2849.38
2863.56
2878.13
2893.11
2908.48
2924.22
2940.34
2956.89
2973.96
2991.58
3009.84
3028.88
3048.79
3069.69
3091.83
3115.44
3140.97
3169.05
3200.78
3237.44
3279.2
3281.99
2499.42
1335.84
912.37
884.974
884.34
883.851
883.349
882.861
882.392
881.944
881.528
881.164
880.867
880.635
880.429
880.15
879.624
878.434
875.808
870.32
859.658
840.563
809.304
762.848
700.702
626.661
549.191
479.262
425.98
393.056
377.576
372.75
372.223
372.409
372.884
373.54
374.209
374.792
375.262
375.622
375.863
375.983
376.005
375.972
375.912
375.852
375.791
375.714
375.614
375.496
375.366
375.234
375.104
374.981
374.866
374.758
2458.16
2457.96
2457.91
2457.95
2457.92
2457.97
2458.03
2458.16
2458.39
2458.73
2459.21
2459.84
2460.63
2461.62
2462.81
2464.25
2465.96
2467.94
2470.22
2472.81
2475.73
2478.97
2482.55
2486.49
2490.8
2495.51
2500.6
2506.04
2511.76
2517.68
2523.7
2529.75
2535.78
2541.72
2547.54
2553.14
2558.47
2563.49
2568.23
2572.74
2577.12
2581.43
2585.72
2590.01
2594.29
2598.58
2602.91
2607.3
2611.77
2616.21
2620.52
2624.78
2629.05
2633.33
2637.61
2641.87
2646.08
2650.21
2654.2
2658
2661.57
2664.9
2668
2670.92
2673.74
2676.53
2679.37
2682.29
2685.35
2688.62
2692.16
2696.07
2700.4
2705.22
2710.58
2716.53
2723.08
2730.25
2738.03
2746.47
2755.58
2765.36
2775.81
2786.91
2798.62
2810.93
2823.78
2837.11
2850.88
2865.04
2879.62
2894.62
2910.03
2925.85
2942.08
2958.78
2976.04
2993.89
3012.44
3031.79
3052.02
3073.12
3095.47
3119.36
3145.03
3173.44
3205.48
3242.66
3284.37
3267.55
2352.24
1258.63
902.034
883.88
883.323
882.829
882.324
881.832
881.358
880.904
880.48
880.107
879.799
879.554
879.33
879.029
878.472
877.235
874.525
868.9
858.011
838.574
806.859
759.892
697.317
623.102
545.85
476.48
423.94
391.713
376.694
372.081
371.602
371.797
372.293
372.977
373.675
374.289
374.794
375.196
375.499
375.7
375.804
375.831
375.814
375.78
375.738
375.682
375.599
375.491
375.367
375.236
375.106
374.982
374.866
374.758
2459.13
2458.9
2458.87
2458.89
2458.87
2458.91
2458.96
2459.08
2459.29
2459.6
2460.05
2460.63
2461.38
2462.32
2463.48
2464.88
2466.55
2468.5
2470.75
2473.31
2476.19
2479.4
2482.96
2486.87
2491.18
2495.88
2500.96
2506.4
2512.1
2518.02
2524.03
2530.08
2536.12
2542.1
2547.96
2553.61
2559
2564.09
2568.89
2573.47
2577.9
2582.28
2586.62
2590.96
2595.29
2599.63
2604
2608.43
2612.94
2617.4
2621.74
2626.03
2630.33
2634.63
2638.94
2643.23
2647.48
2651.65
2655.68
2659.52
2663.13
2666.5
2669.63
2672.59
2675.46
2678.29
2681.17
2684.13
2687.23
2690.55
2694.14
2698.1
2702.47
2707.32
2712.73
2718.72
2725.32
2732.56
2740.4
2748.88
2758
2767.76
2778.15
2789.17
2800.78
2813
2825.74
2839
2852.73
2866.89
2881.5
2896.56
2912.07
2928.03
2944.44
2961.36
2978.88
2996.98
3015.79
3035.39
3055.78
3077.05
3099.59
3123.62
3149.53
3178.13
3210.6
3248.09
3289.48
3244.42
2192.84
1184.92
893.961
882.658
882.144
881.645
881.137
880.643
880.166
879.707
879.278
878.899
878.583
878.328
878.091
877.771
877.185
875.903
873.109
867.341
856.215
836.415
804.217
756.717
693.7
619.325
542.317
473.556
421.813
390.325
375.79
371.397
370.961
371.163
371.677
372.386
373.113
373.756
374.291
374.727
375.075
375.34
375.525
375.637
375.68
375.683
375.666
375.631
375.568
375.477
375.362
375.236
375.108
374.984
374.868
374.759
2460.28
2460.02
2460.01
2460.02
2460
2460.04
2460.09
2460.2
2460.39
2460.67
2461.07
2461.62
2462.32
2463.22
2464.34
2465.7
2467.33
2469.24
2471.45
2473.97
2476.81
2479.99
2483.52
2487.42
2491.71
2496.4
2501.48
2506.91
2512.61
2518.51
2524.51
2530.57
2536.63
2542.64
2548.54
2554.25
2559.7
2564.85
2569.72
2574.36
2578.85
2583.28
2587.68
2592.06
2596.44
2600.82
2605.23
2609.7
2614.23
2618.72
2623.09
2627.41
2631.74
2636.07
2640.4
2644.73
2649.02
2653.23
2657.3
2661.19
2664.83
2668.24
2671.41
2674.41
2677.31
2680.17
2683.09
2686.09
2689.23
2692.6
2696.23
2700.23
2704.64
2709.53
2714.97
2720.99
2727.62
2734.91
2742.81
2751.36
2760.53
2770.3
2780.69
2791.69
2803.26
2815.44
2828.13
2841.35
2855.07
2869.25
2883.92
2899.07
2914.7
2930.81
2947.4
2964.54
2982.28
3000.59
3019.58
3039.29
3059.8
3081.25
3103.91
3128.07
3154.15
3183.07
3216.01
3253.97
3294.09
3202.48
2034.06
1110.5
887.938
881.292
880.804
880.301
879.792
879.298
878.82
878.359
877.928
877.546
877.227
876.966
876.72
876.386
875.777
874.452
871.576
865.663
854.288
834.108
801.402
753.344
689.873
615.34
538.601
470.5
419.606
388.898
374.87
370.698
370.303
370.51
371.037
371.77
372.524
373.195
373.757
374.221
374.604
374.918
375.17
375.363
375.493
375.555
375.571
375.558
375.519
375.447
375.348
375.232
375.108
374.986
374.87
374.761
2461.64
2461.36
2461.36
2461.37
2461.34
2461.38
2461.43
2461.53
2461.69
2461.95
2462.31
2462.81
2463.48
2464.34
2465.41
2466.74
2468.32
2470.19
2472.35
2474.82
2477.62
2480.77
2484.27
2488.15
2492.43
2497.11
2502.18
2507.6
2513.29
2519.19
2525.19
2531.25
2537.33
2543.36
2549.31
2555.07
2560.58
2565.79
2570.72
2575.42
2579.97
2584.44
2588.89
2593.31
2597.74
2602.16
2606.6
2611.1
2615.65
2620.16
2624.57
2628.92
2633.27
2637.63
2642
2646.36
2650.69
2654.95
2659.06
2662.99
2666.68
2670.12
2673.33
2676.36
2679.3
2682.19
2685.14
2688.17
2691.35
2694.76
2698.43
2702.47
2706.9
2711.82
2717.28
2723.32
2729.98
2737.31
2745.24
2753.85
2763.08
2772.9
2783.33
2794.36
2805.94
2818.14
2830.83
2844.05
2857.8
2872.03
2886.79
2902.03
2917.78
2934.02
2950.77
2968.08
2985.95
3004.38
3023.52
3043.29
3063.91
3085.52
3108.27
3132.6
3158.92
3188.3
3221.63
3260.35
3297.72
3132.8
1876.22
1043.9
883.514
879.793
879.316
878.811
878.304
877.813
877.337
876.878
876.449
876.07
875.753
875.492
875.243
874.901
874.274
872.911
869.956
863.892
852.257
831.676
798.436
749.793
685.85
611.161
534.718
467.32
417.325
387.437
373.934
369.986
369.63
369.841
370.38
371.131
371.91
372.606
373.193
373.683
374.096
374.449
374.752
375.013
375.226
375.375
375.447
375.464
375.447
375.399
375.32
375.218
375.104
374.986
374.871
374.763
2463.23
2462.94
2462.94
2462.94
2462.92
2462.95
2463
2463.08
2463.23
2463.45
2463.79
2464.25
2464.88
2465.7
2466.74
2468.01
2469.55
2471.36
2473.47
2475.9
2478.65
2481.76
2485.23
2489.09
2493.36
2498.03
2503.1
2508.51
2514.18
2520.07
2526.06
2532.14
2538.23
2544.29
2550.28
2556.08
2561.65
2566.92
2571.9
2576.66
2581.25
2585.77
2590.26
2594.72
2599.19
2603.64
2608.12
2612.64
2617.21
2621.73
2626.16
2630.54
2634.92
2639.31
2643.71
2648.11
2652.49
2656.79
2660.95
2664.93
2668.65
2672.13
2675.36
2678.44
2681.41
2684.33
2687.31
2690.36
2693.57
2697.02
2700.72
2704.78
2709.24
2714.18
2719.66
2725.71
2732.38
2739.73
2747.7
2756.35
2765.63
2775.49
2785.99
2797.07
2808.69
2820.94
2833.67
2846.93
2860.74
2875.04
2889.89
2905.2
2921.05
2937.39
2954.25
2971.67
2989.63
3008.19
3027.43
3047.25
3068.03
3089.74
3112.68
3137.17
3163.94
3193.72
3227.64
3267.03
3300.33
3018.59
1716.72
987.979
880.241
878.181
877.711
877.207
876.707
876.223
875.754
875.302
874.88
874.508
874.198
873.942
873.695
873.35
872.711
871.312
868.278
862.059
850.148
829.141
795.334
746.072
681.638
606.803
530.682
464.028
414.979
385.945
372.984
369.26
368.944
369.16
369.708
370.474
371.272
371.991
372.601
373.115
373.554
373.94
374.285
374.599
374.881
375.114
375.272
375.343
375.354
375.33
375.274
375.19
375.09
374.982
374.872
374.764
2465.06
2464.75
2464.77
2464.77
2464.74
2464.77
2464.81
2464.89
2465.01
2465.21
2465.52
2465.96
2466.55
2467.33
2468.32
2469.55
2471.03
2472.79
2474.85
2477.22
2479.93
2482.99
2486.44
2490.28
2494.54
2499.2
2504.26
2509.65
2515.31
2521.18
2527.17
2533.24
2539.35
2545.44
2551.46
2557.3
2562.91
2568.23
2573.26
2578.06
2582.7
2587.25
2591.77
2596.27
2600.77
2605.26
2609.76
2614.3
2618.88
2623.41
2627.86
2632.27
2636.68
2641.11
2645.55
2649.99
2654.41
2658.75
2662.96
2666.98
2670.73
2674.25
2677.52
2680.63
2683.62
2686.57
2689.58
2692.65
2695.89
2699.36
2703.09
2707.18
2711.66
2716.61
2722.1
2728.15
2734.83
2742.19
2750.17
2758.85
2768.16
2778.07
2788.62
2799.76
2811.44
2823.75
2836.52
2849.85
2863.72
2878.08
2893.01
2908.39
2924.34
2940.74
2957.7
2975.21
2993.23
3011.94
3031.22
3051.19
3072.08
3093.96
3117.11
3141.87
3169.16
3199.24
3234.21
3274.42
3299.15
2844.97
1557.73
944.828
877.669
876.493
876.032
875.534
875.045
874.573
874.115
873.674
873.263
872.903
872.604
872.357
872.115
871.771
871.121
869.687
866.571
860.185
847.979
826.515
792.106
742.192
677.237
602.259
526.489
460.627
412.573
384.428
372.021
368.524
368.248
368.467
369.023
369.8
370.614
371.352
371.982
372.517
372.981
373.395
373.776
374.135
374.471
374.774
375.017
375.174
375.235
375.238
375.207
375.145
375.063
374.969
374.868
374.765
2467.15
2466.82
2466.86
2466.86
2466.83
2466.85
2466.89
2466.96
2467.06
2467.25
2467.53
2467.94
2468.5
2469.24
2470.19
2471.36
2472.79
2474.49
2476.49
2478.82
2481.48
2484.51
2487.92
2491.75
2495.99
2500.64
2505.68
2511.06
2516.7
2522.55
2528.52
2534.59
2540.71
2546.81
2552.85
2558.73
2564.37
2569.72
2574.79
2579.62
2584.29
2588.88
2593.43
2597.96
2602.49
2607.01
2611.53
2616.08
2620.66
2625.21
2629.67
2634.11
2638.55
2643.02
2647.51
2651.99
2656.46
2660.84
2665.08
2669.13
2672.92
2676.48
2679.77
2682.92
2685.93
2688.91
2691.94
2695.03
2698.3
2701.8
2705.54
2709.66
2714.15
2719.1
2724.59
2730.64
2737.33
2744.68
2752.67
2761.36
2770.69
2780.63
2791.23
2802.4
2814.15
2826.52
2839.33
2852.74
2866.67
2881.1
2896.1
2911.52
2927.58
2944.03
2961.1
2978.64
2996.74
3015.56
3034.9
3055.12
3076.06
3098.21
3121.57
3146.8
3174.45
3205.23
3241.19
3282.08
3290.34
2616.69
1402.02
913.975
875.504
874.783
874.319
873.835
873.361
872.904
872.46
872.033
871.636
871.29
871.004
870.768
870.533
870.19
869.53
868.058
864.853
858.285
845.76
823.807
788.756
738.153
672.664
597.545
522.151
457.126
410.117
382.89
371.049
367.778
367.541
367.765
368.328
369.114
369.94
370.692
371.339
371.893
372.379
372.819
373.231
373.627
374.01
374.369
374.682
374.925
375.07
375.121
375.117
375.08
375.019
374.942
374.855
374.761
2469.53
2469.18
2469.23
2469.23
2469.2
2469.21
2469.25
2469.31
2469.41
2469.58
2469.84
2470.22
2470.75
2471.45
2472.35
2473.47
2474.85
2476.49
2478.44
2480.71
2483.33
2486.33
2489.72
2493.52
2497.75
2502.38
2507.4
2512.75
2518.35
2524.17
2530.13
2536.19
2542.31
2548.42
2554.47
2560.36
2566.02
2571.4
2576.49
2581.34
2586.03
2590.64
2595.21
2599.77
2604.33
2608.86
2613.4
2617.96
2622.54
2627.09
2631.58
2636.05
2640.54
2645.06
2649.59
2654.13
2658.64
2663.05
2667.33
2671.4
2675.21
2678.8
2682.13
2685.31
2688.34
2691.35
2694.41
2697.52
2700.81
2704.32
2708.07
2712.2
2716.7
2721.65
2727.13
2733.19
2739.87
2747.22
2755.21
2763.9
2773.23
2783.2
2793.82
2805.02
2816.82
2829.23
2842.1
2855.59
2869.56
2884.07
2899.12
2914.62
2930.76
2947.26
2964.43
2982.01
3000.24
3019.12
3038.58
3059
3080.07
3102.53
3126.06
3151.88
3179.8
3211.71
3248.66
3289.46
3268.22
2358.9
1261.31
892.82
873.594
873.069
872.613
872.144
871.688
871.247
870.819
870.407
870.026
869.694
869.421
869.196
868.968
868.625
867.952
866.436
863.133
856.366
843.496
821.018
785.284
733.957
667.929
592.661
517.672
453.535
407.619
381.339
370.071
367.024
366.824
367.053
367.623
368.416
369.252
370.015
370.675
371.245
371.749
372.213
372.653
373.082
373.504
373.909
374.281
374.594
374.826
374.959
375.001
374.994
374.956
374.899
374.829
374.749
2472.22
2471.85
2471.91
2471.9
2471.87
2471.88
2471.91
2471.97
2472.06
2472.21
2472.45
2472.81
2473.31
2473.97
2474.82
2475.9
2477.22
2478.82
2480.71
2482.94
2485.52
2488.48
2491.85
2495.63
2499.84
2504.44
2509.42
2514.73
2520.29
2526.08
2532
2538.05
2544.15
2550.26
2556.32
2562.21
2567.87
2573.25
2578.35
2583.21
2587.91
2592.52
2597.11
2601.68
2606.26
2610.82
2615.37
2619.93
2624.53
2629.09
2633.6
2638.11
2642.65
2647.22
2651.82
2656.4
2660.95
2665.39
2669.69
2673.76
2677.6
2681.22
2684.58
2687.79
2690.85
2693.89
2696.97
2700.09
2703.41
2706.93
2710.69
2714.82
2719.32
2724.27
2729.74
2735.8
2742.47
2749.8
2757.79
2766.46
2775.79
2785.78
2796.4
2807.63
2819.48
2831.91
2844.85
2858.4
2872.41
2887.01
2902.1
2917.7
2933.9
2950.47
2967.73
2985.37
3003.75
3022.67
3042.31
3062.87
3084.17
3106.87
3130.7
3157.04
3185.55
3218.42
3256.39
3295.84
3219.9
2101.84
1138.26
880.4
871.823
871.381
870.936
870.485
870.047
869.623
869.211
868.815
868.448
868.131
867.87
867.654
867.43
867.085
866.394
864.828
861.415
854.432
841.189
818.148
781.688
729.598
662.997
587.595
513.054
449.86
405.086
379.78
369.089
366.263
366.099
366.334
366.91
367.709
368.552
369.324
369.993
370.574
371.095
371.578
372.044
372.503
372.959
373.404
373.824
374.196
374.501
374.721
374.843
374.88
374.872
374.837
374.786
374.724
2475.25
2474.85
2474.91
2474.9
2474.87
2474.88
2474.9
2474.95
2475.03
2475.17
2475.39
2475.73
2476.19
2476.81
2477.62
2478.65
2479.93
2481.48
2483.33
2485.52
2488.07
2491
2494.34
2498.1
2502.27
2506.83
2511.76
2517.01
2522.52
2528.25
2534.14
2540.16
2546.25
2552.34
2558.38
2564.26
2569.91
2575.28
2580.37
2585.22
2589.91
2594.52
2599.11
2603.69
2608.27
2612.85
2617.42
2622
2626.6
2631.18
2635.73
2640.3
2644.9
2649.54
2654.19
2658.82
2663.4
2667.87
2672.17
2676.26
2680.12
2683.75
2687.14
2690.38
2693.46
2696.53
2699.63
2702.77
2706.1
2709.63
2713.38
2717.51
2722.01
2726.95
2732.41
2738.47
2745.12
2752.44
2760.42
2769.07
2778.39
2788.39
2799.01
2810.26
2822.14
2834.6
2847.6
2861.19
2875.25
2889.93
2905.08
2920.79
2937.02
2953.7
2971.02
2988.77
3007.28
3026.29
3046.15
3066.81
3088.42
3111.29
3135.58
3162.33
3191.67
3225.43
3264.55
3300.27
3119
1863.94
1034.42
873.704
870.138
869.734
869.301
868.868
868.449
868.042
867.645
867.263
866.91
866.605
866.355
866.146
865.925
865.574
864.862
863.238
859.703
852.485
838.84
815.197
777.967
725.068
657.88
582.362
508.312
446.116
402.529
378.217
368.106
365.498
365.366
365.607
366.19
366.994
367.842
368.619
369.295
369.885
370.418
370.918
371.406
371.891
372.378
372.859
373.319
373.741
374.106
374.4
374.609
374.725
374.761
374.756
374.726
374.682
2478.61
2478.19
2478.25
2478.25
2478.21
2478.21
2478.22
2478.27
2478.33
2478.46
2478.66
2478.97
2479.4
2479.99
2480.77
2481.76
2482.99
2484.51
2486.33
2488.48
2491
2493.91
2497.22
2500.93
2505.05
2509.56
2514.41
2519.59
2525.03
2530.71
2536.56
2542.54
2548.6
2554.67
2560.68
2566.53
2572.14
2577.48
2582.53
2587.36
2592.03
2596.62
2601.2
2605.78
2610.38
2614.97
2619.57
2624.17
2628.8
2633.41
2638
2642.63
2647.29
2652
2656.71
2661.38
2665.99
2670.47
2674.78
2678.87
2682.75
2686.4
2689.82
2693.08
2696.18
2699.28
2702.38
2705.54
2708.88
2712.4
2716.16
2720.28
2724.78
2729.71
2735.17
2741.22
2747.84
2755.14
2763.1
2771.72
2781.03
2791.03
2801.64
2812.92
2824.82
2837.3
2850.37
2863.98
2878.11
2892.86
2908.07
2923.89
2940.15
2956.98
2974.36
2992.27
3010.87
3030.05
3050.09
3070.87
3092.81
3115.9
3140.74
3167.96
3198.23
3232.92
3273.28
3300.34
2934.17
1639.19
959.05
870.01
868.523
868.137
867.718
867.303
866.903
866.512
866.13
865.76
865.419
865.124
864.882
864.677
864.455
864.096
863.357
861.669
858
850.525
836.446
812.16
774.115
720.379
652.59
576.971
503.456
442.313
399.957
376.657
367.125
364.728
364.627
364.874
365.464
366.272
367.123
367.903
368.583
369.179
369.721
370.236
370.742
371.25
371.764
372.277
372.774
373.237
373.652
374.007
374.292
374.495
374.61
374.648
374.646
374.622
2482.33
2481.89
2481.95
2481.94
2481.9
2481.88
2481.89
2481.92
2481.97
2482.08
2482.26
2482.55
2482.96
2483.52
2484.27
2485.23
2486.44
2487.92
2489.72
2491.85
2494.34
2497.22
2500.49
2504.15
2508.2
2512.63
2517.4
2522.49
2527.85
2533.46
2539.25
2545.19
2551.21
2557.24
2563.2
2569
2574.56
2579.84
2584.85
2589.63
2594.26
2598.82
2603.38
2607.96
2612.57
2617.18
2621.81
2626.45
2631.11
2635.77
2640.43
2645.12
2649.86
2654.63
2659.38
2664.1
2668.72
2673.21
2677.53
2681.63
2685.52
2689.18
2692.63
2695.9
2699.02
2702.13
2705.24
2708.4
2711.74
2715.25
2719.01
2723.13
2727.61
2732.53