/*--------------------------------*- C++ -*----------------------------------*\
  =========                 |
  \\      /  F ield         | OpenFOAM: The Open Source CFD Toolbox
   \\    /   O peration     | Website:  https://openfoam.org
    \\  /    A nd           | Version:  13
     \\/     M anipulation  |
\*---------------------------------------------------------------------------*/
FoamFile
{
    format      ascii;
    class       volVectorField;
    location    "0.0007";
    object      U;
}
// * * * * * * * * * * * * * * * * * * * * * * * * * * * * * * * * * * * * * //

dimensions      [0 1 -1 0 0 0 0];

internalField   nonuniform List<vector> 
33333
(
(3.32825e-14 9.50883e-14 0)
(3.20532e-14 3.32301e-14 0)
(1.54685e-13 5.68883e-14 0)
(2.14035e-13 -9.03305e-14 0)
(6.81609e-14 -2.19725e-13 0)
(8.44788e-14 -1.76797e-13 0)
(-1.39042e-15 -5.20982e-14 0)
(-6.11461e-14 -9.23527e-15 0)
(-6.76322e-16 3.68489e-14 0)
(3.09577e-14 3.73632e-14 0)
(-3.93369e-14 -2.4771e-14 0)
(6.01089e-15 -4.22315e-15 0)
(4.87526e-14 -9.78785e-14 0)
(2.83134e-14 -7.33159e-14 0)
(6.05506e-14 -2.90779e-14 0)
(6.50231e-14 4.42606e-14 0)
(4.93178e-14 -4.35586e-14 0)
(-6.59649e-14 -1.05372e-13 0)
(-1.99867e-13 -1.13855e-13 0)
(-1.8813e-13 1.67369e-14 0)
(-2.32603e-14 -8.2641e-15 0)
(-5.61297e-15 9.82582e-15 0)
(-3.71161e-14 -8.66076e-15 0)
(-6.65019e-14 9.19251e-16 0)
(1.87122e-14 -1.96485e-14 0)
(3.94457e-14 -4.98183e-14 0)
(-3.79175e-14 3.60889e-16 0)
(-2.65016e-14 6.38928e-14 0)
(7.44424e-14 8.51201e-14 0)
(1.04209e-13 -4.71177e-14 0)
(2.44246e-14 -3.15102e-14 0)
(6.47956e-14 6.35657e-14 0)
(4.89661e-14 -9.60455e-14 0)
(4.30906e-14 -1.67947e-13 0)
(-4.83343e-14 -9.85381e-14 0)
(-1.01797e-13 -6.67552e-14 0)
(4.98018e-14 -3.58171e-14 0)
(2.21658e-13 -1.13577e-13 0)
(1.10006e-13 -1.05821e-13 0)
(1.0182e-13 -7.87094e-14 0)
(1.43797e-14 -3.66942e-14 0)
(-1.68893e-13 -8.89432e-14 0)
(-2.0558e-13 -1.87303e-13 0)
(-1.80893e-13 -2.26364e-13 0)
(-1.01614e-14 -1.11277e-13 0)
(7.15891e-14 -1.02645e-13 0)
(-5.07665e-14 -3.7935e-14 0)
(-4.1421e-14 -7.23708e-14 0)
(-8.97266e-14 2.42981e-14 0)
(9.52976e-14 -4.63056e-15 0)
(3.07748e-13 6.21892e-14 0)
(2.32505e-13 3.50972e-14 0)
(1.26493e-13 7.27306e-14 0)
(1.93213e-13 -4.84207e-14 0)
(1.04837e-13 -8.25002e-14 0)
(-2.73251e-14 -1.26309e-13 0)
(-6.54918e-14 -2.24361e-14 0)
(-6.34154e-14 -1.17905e-13 0)
(-8.13507e-14 -1.16477e-13 0)
(-1.33123e-13 -1.73198e-13 0)
(-2.37174e-13 -2.00059e-13 0)
(-1.31646e-13 -8.89484e-14 0)
(2.09659e-14 -9.71242e-14 0)
(-3.80452e-14 -1.16167e-13 0)
(-1.1088e-13 -1.06059e-13 0)
(-7.2282e-14 -2.35018e-15 0)
(-7.55694e-14 -8.01454e-14 0)
(-8.24502e-14 -2.09055e-13 0)
(-7.92858e-14 -1.60188e-13 0)
(1.17168e-13 -9.43033e-14 0)
(2.82792e-13 -1.79109e-13 0)
(1.45908e-13 -2.52023e-13 0)
(3.41777e-14 -1.76297e-13 0)
(-5.42206e-14 6.20285e-14 0)
(-5.1936e-14 1.51111e-13 0)
(2.70118e-14 1.06437e-13 0)
(1.43575e-13 1.21975e-13 0)
(2.72862e-13 3.59602e-14 0)
(2.31807e-13 -1.07282e-13 0)
(-9.39102e-15 -1.39603e-13 0)
(-5.38583e-14 -8.74105e-14 0)
(-1.13673e-14 -2.36226e-14 0)
(1.13332e-14 -1.3881e-14 0)
(1.26548e-13 -4.37501e-14 0)
(9.77657e-15 -9.46142e-14 0)
(-8.97399e-14 -1.4549e-13 0)
(-7.76382e-14 -1.92142e-13 0)
(1.86031e-15 -1.90568e-13 0)
(2.16335e-14 -2.23403e-13 0)
(-1.10369e-13 -2.08433e-13 0)
(-1.71612e-13 -8.20854e-14 0)
(-1.69003e-13 -7.23733e-14 0)
(-1.44519e-13 -1.69979e-13 0)
(-1.12151e-13 -6.70175e-14 0)
(-4.76635e-14 1.08376e-13 0)
(-1.42141e-14 1.2858e-13 0)
(4.22938e-14 1.61952e-13 0)
(-7.90615e-14 1.60543e-13 0)
(-2.12835e-13 2.69254e-13 0)
(1.29145e-14 1.25401e-13 0)
(9.88932e-14 -8.48494e-14 0)
(-7.09042e-14 -8.87369e-14 0)
(-9.68028e-14 2.38743e-14 0)
(1.04212e-13 8.37705e-14 0)
(1.50358e-13 1.36617e-15 0)
(9.73663e-14 -5.20073e-14 0)
(3.30271e-14 -2.3678e-14 0)
(-4.279e-14 -9.63594e-14 0)
(-2.6856e-14 -1.31355e-13 0)
(-6.38205e-14 -1.6806e-13 0)
(-1.46757e-13 -1.31895e-13 0)
(-9.74105e-14 -5.7826e-14 0)
(6.35901e-14 -1.13853e-13 0)
(1.67755e-13 -2.31009e-13 0)
(1.27277e-13 -1.46577e-13 0)
(-9.53562e-14 -1.03079e-13 0)
(-1.42107e-13 -1.75785e-13 0)
(-1.12657e-13 -2.07553e-13 0)
(-2.31626e-13 -1.29895e-13 0)
(-3.17822e-13 -3.76606e-15 0)
(-1.74009e-13 6.01647e-14 0)
(-1.13795e-14 3.14196e-14 0)
(1.43199e-13 8.1889e-14 0)
(2.20648e-13 1.3613e-13 0)
(2.83803e-13 4.16563e-14 0)
(2.57279e-13 -6.63181e-14 0)
(4.29661e-14 -4.26062e-14 0)
(-2.95874e-15 -5.15303e-14 0)
(1.36754e-14 -2.76289e-14 0)
(-1.23106e-13 5.71409e-15 0)
(-8.00103e-14 4.76601e-14 0)
(-7.6658e-14 9.09981e-14 0)
(-6.19299e-14 -3.50967e-14 0)
(-6.30221e-14 -2.76642e-14 0)
(-1.56928e-13 -6.64589e-14 0)
(-3.53959e-13 -5.18324e-14 0)
(-3.84215e-13 7.84259e-14 0)
(-1.66202e-13 1.23593e-13 0)
(-5.45933e-14 1.25551e-13 0)
(-3.3635e-15 2.4082e-14 0)
(1.77819e-13 -4.30761e-14 0)
(2.62606e-13 -1.10794e-13 0)
(1.17418e-13 -8.55411e-14 0)
(4.89669e-14 -3.81846e-14 0)
(1.29361e-14 -8.15896e-14 0)
(-7.05075e-14 -8.45774e-14 0)
(-1.11539e-13 -1.25211e-13 0)
(-1.13669e-13 -5.56212e-14 0)
(-6.86151e-14 -7.7297e-14 0)
(-8.96633e-14 -7.33407e-14 0)
(9.06108e-15 -3.1233e-14 0)
(2.5498e-15 -3.94536e-14 0)
(-9.06386e-14 -3.24986e-14 0)
(-1.54253e-13 -3.84053e-14 0)
(-1.20437e-13 -2.28767e-14 0)
(-6.08791e-14 -6.24052e-14 0)
(-7.65981e-14 -1.20893e-13 0)
(-1.24206e-13 -1.10411e-13 0)
(-4.66969e-14 -6.42946e-14 0)
(4.32895e-14 -7.46297e-14 0)
(-2.3678e-14 -1.1307e-13 0)
(-1.40433e-13 -7.43272e-14 0)
(-2.1947e-13 1.29194e-14 0)
(-1.66663e-13 2.33325e-14 0)
(-2.07632e-14 9.21556e-14 0)
(1.73846e-13 6.89296e-14 0)
(2.61135e-13 -8.30477e-14 0)
(1.51037e-14 9.50451e-14 0)
(1.06381e-13 3.53981e-14 0)
(1.21936e-13 8.44679e-14 0)
(3.59895e-14 -1.01374e-13 0)
(2.2574e-14 -2.51808e-13 0)
(1.50448e-13 -1.8462e-13 0)
(9.48975e-14 -1.66344e-13 0)
(3.81878e-14 -7.12288e-14 0)
(7.07688e-14 7.59451e-15 0)
(-6.3604e-14 -1.02174e-14 0)
(-6.70954e-14 -9.25969e-14 0)
(-7.63599e-15 -5.37879e-14 0)
(-8.56415e-15 -9.18534e-14 0)
(3.98186e-14 -9.75331e-14 0)
(9.61098e-14 -7.45831e-14 0)
(8.88453e-14 -7.52838e-14 0)
(5.57659e-15 -2.27132e-13 0)
(-1.12909e-13 -2.42023e-13 0)
(-1.38118e-13 -2.32093e-13 0)
(-1.19494e-13 -1.24911e-13 0)
(-2.65871e-14 -6.03464e-14 0)
(-1.15545e-14 -9.46474e-14 0)
(-1.1482e-13 -7.47259e-14 0)
(-6.45193e-14 -7.04511e-14 0)
(1.09886e-14 -7.70723e-14 0)
(1.91636e-14 -1.31324e-13 0)
(2.77591e-14 -9.31439e-14 0)
(7.15198e-14 -5.825e-14 0)
(2.0179e-14 1.08331e-14 0)
(3.82098e-14 -5.12385e-14 0)
(1.05928e-13 -9.57054e-14 0)
(2.0698e-14 -6.47772e-14 0)
(-2.17424e-14 -1.99558e-13 0)
(7.9254e-14 -1.22574e-13 0)
(-5.84074e-15 -1.51638e-13 0)
(-8.82777e-14 -9.92005e-14 0)
(2.40136e-14 -1.66699e-13 0)
(1.49113e-13 -2.18087e-13 0)
(1.20099e-13 -2.08653e-13 0)
(9.34061e-14 -1.4936e-13 0)
(2.80966e-14 -2.55941e-13 0)
(-2.06258e-13 -2.65454e-13 0)
(-2.77719e-13 -3.52384e-13 0)
(-8.38592e-14 -2.8336e-13 0)
(4.2667e-14 -1.20016e-13 0)
(4.38219e-14 -1.47393e-13 0)
(-4.75202e-14 -1.28029e-13 0)
(-7.69389e-14 -1.27136e-13 0)
(3.00738e-14 -8.06785e-14 0)
(1.86397e-13 9.23993e-14 0)
(2.94201e-13 5.55725e-14 0)
(2.19242e-13 -3.59269e-14 0)
(5.18877e-14 -5.63757e-15 0)
(1.0385e-13 -1.01934e-13 0)
(3.20804e-14 -1.68161e-13 0)
(-3.30239e-14 -2.48946e-13 0)
(-7.43535e-14 -2.21288e-13 0)
(-8.64125e-14 -3.49759e-13 0)
(-3.05295e-14 -3.19876e-13 0)
(-1.17079e-13 -2.92242e-13 0)
(-2.0448e-13 -2.53791e-13 0)
(-8.23935e-14 -2.76396e-13 0)
(-1.58127e-14 -2.95184e-13 0)
(-5.07846e-14 -2.17706e-13 0)
(-3.47382e-14 -1.58033e-13 0)
(-6.62851e-14 -1.41225e-13 0)
(-1.70335e-13 -2.29803e-13 0)
(-1.05975e-13 -2.69442e-13 0)
(3.69516e-14 -2.23313e-13 0)
(1.03875e-13 -8.82822e-14 0)
(1.52868e-13 -1.79569e-13 0)
(1.08151e-13 -2.34488e-13 0)
(1.66186e-13 -1.93637e-13 0)
(1.28303e-13 -8.70965e-14 0)
(3.10031e-14 3.00731e-14 0)
(9.24225e-14 4.48797e-14 0)
(1.02734e-13 6.85185e-14 0)
(1.18609e-13 4.26976e-14 0)
(1.1132e-13 -1.87436e-13 0)
(-9.67927e-15 -2.08709e-13 0)
(-5.16317e-14 -2.81657e-13 0)
(6.26599e-14 -2.61983e-13 0)
(2.54457e-14 -2.14429e-13 0)
(6.05789e-14 -2.57957e-13 0)
(-6.74725e-14 -2.80387e-13 0)
(-1.47952e-13 -3.12035e-13 0)
(-5.58934e-14 -3.71656e-13 0)
(-2.09607e-14 -2.96582e-13 0)
(-1.89894e-14 -3.13986e-13 0)
(-3.46855e-14 -2.83306e-13 0)
(-1.05449e-13 -2.29849e-13 0)
(-2.22583e-13 -2.88598e-13 0)
(-1.3923e-13 -2.81096e-13 0)
(-1.56249e-14 -1.85358e-13 0)
(-1.44193e-14 -4.52146e-14 0)
(2.31951e-15 2.78747e-14 0)
(-2.23711e-14 7.10175e-15 0)
(-1.16124e-13 -3.50417e-14 0)
(-1.80176e-13 7.94369e-14 0)
(-7.28536e-14 4.4245e-14 0)
(1.69493e-14 -9.11448e-14 0)
(-2.60946e-14 -1.13298e-13 0)
(1.81235e-14 -9.93477e-15 0)
(9.30303e-14 1.69772e-14 0)
(7.13284e-14 -6.88349e-14 0)
(8.33949e-14 -1.71363e-13 0)
(1.42733e-14 -2.51816e-13 0)
(-7.75704e-14 -2.04948e-13 0)
(-1.04525e-13 -2.48745e-13 0)
(-4.47287e-14 -1.71132e-13 0)
(-9.59369e-14 -1.56989e-13 0)
(-2.88159e-14 -1.12436e-13 0)
(8.39316e-15 -1.70761e-13 0)
(1.168e-13 -1.83447e-13 0)
(8.39936e-14 -2.36452e-13 0)
(-9.79718e-14 -2.80353e-13 0)
(-1.07205e-13 -2.45567e-13 0)
(-7.00749e-14 -2.59324e-13 0)
(-1.25819e-13 -1.91831e-13 0)
(-2.38797e-13 -1.36503e-13 0)
(-1.92935e-13 2.40797e-14 0)
(-5.16716e-14 -3.53555e-14 0)
(1.21375e-13 5.97448e-14 0)
(2.0785e-13 8.4632e-14 0)
(2.65756e-13 4.81075e-14 0)
(2.55745e-13 -9.05231e-14 0)
(1.0173e-13 -6.07145e-14 0)
(4.08356e-14 -4.92099e-14 0)
(2.00942e-14 -2.6727e-14 0)
(-7.91199e-14 -2.99195e-14 0)
(-8.23659e-14 -1.78132e-14 0)
(-1.4262e-13 -6.01857e-14 0)
(-1.29286e-13 -1.53132e-13 0)
(-1.00291e-13 -1.99754e-13 0)
(-1.51977e-13 -2.67214e-13 0)
(-3.00216e-13 -1.87991e-13 0)
(-2.69772e-13 7.32345e-15 0)
(-6.86637e-14 6.66306e-14 0)
(-2.61021e-14 1.05454e-13 0)
(-4.83813e-14 8.44e-14 0)
(7.78298e-14 -8.61768e-14 0)
(2.16923e-13 -1.95582e-13 0)
(1.54695e-13 -1.84668e-13 0)
(2.03284e-14 -1.33165e-13 0)
(-7.12844e-15 -1.72119e-13 0)
(-5.19477e-14 -1.7983e-13 0)
(-4.9795e-14 -1.67339e-13 0)
(-8.24138e-14 -7.62031e-14 0)
(-1.31085e-13 -3.06585e-14 0)
(-6.88601e-14 -3.16501e-14 0)
(-1.89295e-14 -2.2476e-14 0)
(-8.11363e-14 -1.57791e-13 0)
(-1.29368e-13 -2.06485e-13 0)
(-1.24411e-13 -2.20789e-13 0)
(-1.35701e-13 -1.89255e-13 0)
(-1.11873e-13 -2.42877e-13 0)
(-5.50469e-14 -2.46022e-13 0)
(-8.17208e-14 -1.64589e-13 0)
(-6.04664e-14 -9.16281e-14 0)
(1.29634e-14 -1.5966e-13 0)
(1.1286e-14 -1.48664e-13 0)
(-5.0391e-14 -6.38563e-14 0)
(-1.25308e-13 4.35262e-14 0)
(-1.59658e-13 1.3919e-13 0)
(-8.36869e-14 1.29624e-13 0)
(3.46048e-14 5.41331e-14 0)
(1.85573e-13 -1.07101e-13 0)
(2.97104e-14 3.974e-14 0)
(2.64739e-14 3.09495e-14 0)
(3.74775e-14 -8.8281e-14 0)
(-5.85208e-14 -6.90088e-14 0)
(3.14161e-14 -1.32559e-13 0)
(1.17835e-13 -1.43873e-13 0)
(9.60544e-14 -1.74249e-13 0)
(1.24684e-13 -1.26453e-13 0)
(1.09567e-13 -1.31249e-13 0)
(-4.28104e-14 -9.43163e-14 0)
(-8.63579e-14 -1.42679e-13 0)
(-9.65084e-15 -1.03759e-13 0)
(1.33128e-14 -3.28255e-14 0)
(6.54924e-14 2.67261e-14 0)
(5.80829e-14 -1.66457e-14 0)
(-3.84625e-14 -1.21874e-13 0)
(-2.50749e-14 -1.53861e-13 0)
(-6.83234e-14 -1.96781e-13 0)
(-1.02983e-13 -1.88898e-13 0)
(-3.14174e-14 -1.81879e-13 0)
(1.06937e-14 -1.28073e-13 0)
(-3.41582e-15 -1.3642e-13 0)
(-6.24147e-14 -9.67315e-14 0)
(-8.60583e-14 -3.27366e-14 0)
(-4.23363e-14 -9.71288e-14 0)
(2.96598e-14 -1.52773e-13 0)
(1.67067e-14 -1.76519e-13 0)
(7.84797e-14 -2.23518e-13 0)
(9.89002e-14 -1.76768e-13 0)
(1.13692e-14 -1.311e-13 0)
(3.65202e-14 -9.45025e-14 0)
(-1.04564e-14 -1.13907e-13 0)
(2.75399e-14 -7.43192e-14 0)
(1.11961e-13 -1.10594e-13 0)
(3.91164e-15 -6.73229e-14 0)
(-1.31008e-13 -2.37267e-14 0)
(-3.26871e-14 -1.51751e-13 0)
(1.40467e-13 -1.67255e-13 0)
(1.53587e-13 -1.82144e-13 0)
(4.73661e-14 -1.68083e-13 0)
(-1.28299e-14 -2.14345e-13 0)
(-1.86234e-13 -2.08501e-13 0)
(-2.49107e-13 -1.45335e-13 0)
(-4.04136e-14 -1.3262e-13 0)
(6.1242e-14 -1.93032e-13 0)
(3.10819e-14 -2.83773e-13 0)
(-1.72571e-14 -2.09713e-13 0)
(2.32011e-15 -1.12644e-13 0)
(1.21791e-13 -1.12201e-13 0)
(1.84819e-13 -3.60334e-14 0)
(2.16304e-13 -1.68509e-14 0)
(1.92139e-13 -1.08395e-13 0)
(8.82615e-14 -1.1634e-13 0)
(3.02092e-14 -8.24152e-14 0)
(-9.33646e-14 -1.44533e-13 0)
(-9.79594e-14 -2.03952e-13 0)
(-1.59826e-13 -2.01556e-13 0)
(-1.17092e-13 -2.11849e-13 0)
(1.99687e-14 -2.99834e-13 0)
(-7.51449e-14 -2.84365e-13 0)
(-2.26181e-13 -2.76022e-13 0)
(-1.43568e-13 -3.06046e-13 0)
(5.60321e-14 -2.59603e-13 0)
(5.74466e-14 -1.85463e-13 0)
(-3.94507e-14 -1.28585e-13 0)
(-1.06458e-13 -1.80368e-13 0)
(-1.19595e-13 -1.64302e-13 0)
(-4.92582e-14 -6.37562e-14 0)
(7.24363e-14 -5.06149e-14 0)
(1.11535e-13 -7.96632e-14 0)
(7.20737e-14 -1.18335e-13 0)
(1.07199e-13 -1.18317e-13 0)
(1.63483e-13 -1.41758e-13 0)
(1.50879e-13 -1.12799e-13 0)
(1.25342e-13 -1.31295e-13 0)
(8.88192e-14 -8.30282e-14 0)
(9.60317e-14 -1.30205e-13 0)
(3.10961e-14 -1.61532e-13 0)
(7.83602e-15 -1.3674e-13 0)
(-9.16864e-14 -2.0831e-13 0)
(-6.54558e-14 -2.34814e-13 0)
(8.11899e-15 -2.29243e-13 0)
(-3.01287e-14 -2.82813e-13 0)
(7.46423e-14 -2.62625e-13 0)
(-1.7645e-14 -2.48884e-13 0)
(-1.87192e-13 -2.98683e-13 0)
(-2.67993e-14 -3.21196e-13 0)
(5.48811e-14 -2.64441e-13 0)
(-6.99484e-15 -2.22922e-13 0)
(-8.35348e-15 -2.04818e-13 0)
(-1.12541e-13 -2.22816e-13 0)
(-1.5885e-13 -1.40627e-13 0)
(-8.83723e-14 -7.59506e-14 0)
(-5.0876e-15 -1.26182e-13 0)
(9.29648e-14 -1.28289e-13 0)
(-2.20988e-14 -6.26281e-14 0)
(-6.7525e-14 -1.18888e-13 0)
(-4.36381e-14 -1.33647e-13 0)
(-8.6341e-14 -1.63917e-13 0)
(-8.87162e-14 -9.67125e-14 0)
(-1.26005e-14 -6.16045e-14 0)
(3.24802e-14 -6.39757e-14 0)
(-5.3524e-15 -4.70204e-14 0)
(6.19191e-15 -9.86706e-14 0)
(-1.65471e-14 -1.4934e-13 0)
(-4.62945e-14 -2.2357e-13 0)
(-3.93969e-14 -2.73585e-13 0)
(-7.0472e-14 -2.26666e-13 0)
(-1.71776e-14 -2.00419e-13 0)
(8.58649e-15 -1.28133e-13 0)
(-1.27938e-13 -1.62593e-13 0)
(-9.19594e-14 -1.77221e-13 0)
(4.00395e-14 -1.91637e-13 0)
(1.08328e-13 -1.1832e-13 0)
(6.53208e-14 -2.14459e-13 0)
(-6.55839e-14 -2.06346e-13 0)
(-7.7623e-14 -1.49234e-13 0)
(-7.31579e-14 -1.74005e-13 0)
(-1.23196e-13 -1.59482e-13 0)
(-1.2663e-13 -9.04089e-14 0)
(-8.60969e-14 -1.06641e-14 0)
(-1.16748e-14 6.05041e-14 0)
(1.56193e-13 1.38476e-13 0)
(2.23294e-13 8.98897e-14 0)
(1.97634e-13 5.75582e-14 0)
(2.2302e-13 4.73596e-15 0)
(9.23604e-14 -4.61653e-14 0)
(1.57437e-14 -2.41808e-14 0)
(3.60225e-14 -1.03457e-13 0)
(-1.03052e-13 -8.13296e-14 0)
(-1.72866e-13 -1.21786e-13 0)
(-1.7367e-13 -1.77581e-13 0)
(-1.8483e-13 -1.17963e-13 0)
(-2.2482e-13 -1.63638e-13 0)
(-1.43586e-13 -1.88862e-13 0)
(-1.40779e-13 -2.11525e-13 0)
(-1.33485e-13 -1.21633e-13 0)
(-8.57136e-14 -6.957e-14 0)
(-5.57173e-14 -7.88993e-14 0)
(-8.30404e-14 -1.08326e-13 0)
(1.06872e-14 -4.13102e-14 0)
(1.74265e-13 -9.37454e-14 0)
(1.59177e-13 -1.60136e-13 0)
(5.03615e-14 -2.00265e-13 0)
(-2.32812e-14 -1.5513e-13 0)
(-7.26761e-14 -1.65403e-13 0)
(-3.13493e-14 -2.07765e-13 0)
(-1.36974e-15 -1.64547e-13 0)
(-5.06491e-14 -5.12887e-14 0)
(-9.95654e-14 -4.71005e-14 0)
(-1.15112e-13 -6.73988e-14 0)
(-1.96415e-13 -1.04372e-13 0)
(-1.77489e-13 -2.26354e-13 0)
(-1.68635e-13 -2.27518e-13 0)
(-1.46336e-13 -2.53529e-13 0)
(-6.06439e-14 -2.25332e-13 0)
(5.32532e-14 -1.60382e-13 0)
(1.70653e-14 -1.98943e-14 0)
(-4.3727e-14 3.19676e-14 0)
(-9.74335e-15 5.18027e-14 0)
(3.6379e-14 5.67777e-15 0)
(-3.34562e-15 -3.00652e-14 0)
(-3.44809e-14 -2.56403e-15 0)
(-1.05346e-13 1.01363e-13 0)
(-1.0877e-13 7.45584e-14 0)
(-5.69979e-14 1.19587e-13 0)
(1.1842e-13 2.99252e-14 0)
(3.73682e-14 -1.29768e-13 0)
(1.02128e-15 -1.47719e-13 0)
(1.25626e-14 -1.93597e-13 0)
(-2.45699e-14 -1.3265e-13 0)
(-4.04318e-14 -8.10529e-14 0)
(6.33743e-14 -1.06263e-13 0)
(1.2258e-13 -1.6695e-13 0)
(1.61775e-13 -1.42478e-13 0)
(1.14307e-13 -1.07416e-13 0)
(-4.59122e-14 -9.87958e-14 0)
(-6.88846e-14 -1.4095e-13 0)
(5.82158e-14 -1.28739e-13 0)
(7.77282e-14 -7.03563e-14 0)
(4.7827e-14 -1.06763e-13 0)
(-1.8537e-14 -1.28589e-13 0)
(-4.65952e-14 -1.3743e-13 0)
(-7.50282e-14 -1.00634e-13 0)
(-1.20416e-13 -1.68253e-13 0)
(-1.04794e-13 -2.61659e-13 0)
(-4.10233e-14 -2.48644e-13 0)
(4.01126e-14 -2.00281e-13 0)
(1.26529e-14 -1.25142e-13 0)
(-5.28075e-14 -1.4539e-13 0)
(-1.23816e-13 -1.68335e-13 0)
(-6.73948e-14 -1.8258e-13 0)
(1.89137e-14 -2.36171e-13 0)
(-2.66901e-14 -2.57438e-13 0)
(8.74316e-14 -2.49208e-13 0)
(8.04415e-14 -1.72038e-13 0)
(5.7466e-14 -1.68227e-13 0)
(9.71867e-14 -1.29022e-13 0)
(3.85969e-14 -1.28278e-13 0)
(3.20063e-14 -2.36615e-14 0)
(8.34355e-14 -1.10296e-13 0)
(6.27259e-14 -1.30519e-13 0)
(-1.25883e-13 -1.50659e-13 0)
(-7.65715e-14 -9.18945e-14 0)
(7.6771e-14 -1.28817e-13 0)
(1.19298e-13 -1.48682e-13 0)
(8.11657e-14 -1.62488e-13 0)
(6.31838e-15 -2.20499e-13 0)
(-1.27236e-13 -1.95153e-13 0)
(-1.93408e-13 -7.8246e-14 0)
(-1.30463e-13 -1.2663e-13 0)
(-4.94712e-14 -2.41733e-13 0)
(4.41549e-14 -2.82468e-13 0)
(8.75923e-14 -1.9853e-13 0)
(2.07952e-14 -1.80491e-13 0)
(1.18286e-13 -1.6814e-13 0)
(2.34457e-13 -2.4346e-13 0)
(2.11768e-13 -1.78839e-13 0)
(1.34283e-13 -2.33554e-13 0)
(2.88689e-14 -2.83758e-13 0)
(-3.21081e-14 -2.15481e-13 0)
(-1.0335e-13 -1.93566e-13 0)
(-7.58239e-14 -2.15968e-13 0)
(-1.00479e-13 -1.52641e-13 0)
(-1.66808e-13 -7.98842e-14 0)
(-4.48804e-14 -1.32496e-13 0)
(-9.00914e-14 -2.24522e-13 0)
(-1.91221e-13 -2.33224e-13 0)
(-8.06643e-14 -1.8722e-13 0)
(9.07881e-14 -2.01192e-13 0)
(1.00966e-13 -2.30137e-13 0)
(1.00714e-14 -1.18337e-13 0)
(-5.3454e-14 -1.06261e-13 0)
(-3.05261e-14 -9.1909e-14 0)
(-1.33972e-14 1.22716e-14 0)
(2.09683e-15 -3.06144e-15 0)
(1.17481e-14 -1.23028e-13 0)
(6.53397e-14 -1.29794e-13 0)
(5.78742e-14 -1.12888e-13 0)
(1.27407e-13 -1.88572e-13 0)
(1.70788e-13 -2.40651e-13 0)
(1.04809e-13 -2.72372e-13 0)
(1.13079e-13 -2.27989e-13 0)
(6.47519e-14 -2.42793e-13 0)
(7.07532e-14 -2.84362e-13 0)
(2.91391e-14 -2.1492e-13 0)
(-8.91319e-14 -2.63758e-13 0)
(-3.97027e-14 -2.3216e-13 0)
(2.11973e-14 -2.19261e-13 0)
(-1.13394e-14 -1.52661e-13 0)
(6.10139e-14 -1.18607e-13 0)
(-7.9287e-14 -1.88318e-13 0)
(-2.11909e-13 -2.40304e-13 0)
(-6.3394e-14 -2.33613e-13 0)
(6.23121e-14 -3.19682e-13 0)
(8.1611e-14 -2.53765e-13 0)
(4.20996e-14 -1.55335e-13 0)
(3.05887e-16 -1.8414e-13 0)
(-3.35748e-14 -3.39656e-14 0)
(-1.11664e-13 3.18231e-14 0)
(-6.18332e-14 -5.59963e-14 0)
(3.43585e-14 -1.80835e-13 0)
(3.16559e-14 -1.66738e-13 0)
(-1.15772e-13 -8.75483e-14 0)
(-1.60117e-13 -1.67407e-13 0)
(-7.89758e-14 -2.48087e-13 0)
(5.27691e-15 -2.73978e-13 0)
(3.93986e-14 -2.01114e-13 0)
(3.52792e-14 -2.18784e-13 0)
(1.4028e-14 -2.38465e-13 0)
(-1.74894e-14 -1.85187e-13 0)
(-7.22526e-14 -1.48976e-13 0)
(-7.53735e-14 -1.74951e-13 0)
(-3.21885e-14 -1.63312e-13 0)
(-3.50538e-14 -1.38656e-13 0)
(-6.23885e-15 -9.96136e-14 0)
(-4.0683e-14 -1.52337e-13 0)
(-1.71824e-13 -1.83147e-13 0)
(-8.66366e-14 -1.64201e-13 0)
(8.35988e-14 -1.74315e-13 0)
(1.13428e-13 -1.63199e-13 0)
(5.58916e-14 -1.59676e-13 0)
(-1.39768e-14 -1.88489e-13 0)
(-8.77999e-14 -1.79784e-13 0)
(-7.7118e-14 -1.64584e-13 0)
(-5.0845e-14 -2.05372e-13 0)
(-7.2806e-15 -1.10844e-13 0)
(1.49811e-14 -4.39051e-14 0)
(6.13265e-14 9.24472e-14 0)
(8.46956e-14 2.18675e-14 0)
(1.20568e-13 -7.42958e-14 0)
(1.45403e-13 -1.65789e-13 0)
(1.52315e-13 -1.24296e-13 0)
(8.97491e-14 -1.82509e-13 0)
(2.25859e-14 -1.24592e-13 0)
(-4.5634e-14 -2.12217e-13 0)
(-1.30686e-13 -2.71007e-13 0)
(-1.84972e-13 -2.87817e-13 0)
(-1.29593e-13 -2.16986e-13 0)
(-1.51504e-13 -1.66047e-13 0)
(-1.97568e-13 -2.20237e-13 0)
(-1.85653e-13 -2.15375e-13 0)
(-1.60092e-13 -2.78241e-13 0)
(-6.04598e-14 -2.61359e-13 0)
(-1.36267e-14 -1.84084e-13 0)
(-3.47313e-14 -1.08318e-13 0)
(-2.63324e-14 -1.13231e-13 0)
(1.9939e-14 -6.30428e-14 0)
(4.06293e-14 -1.46955e-13 0)
(7.29789e-14 -2.2619e-13 0)
(2.00329e-14 -2.64834e-13 0)
(1.48651e-14 -3.02614e-13 0)
(-6.52589e-14 -2.71948e-13 0)
(-5.75386e-14 -2.4305e-13 0)
(4.99335e-14 -2.56187e-13 0)
(9.49188e-15 -2.57159e-13 0)
(-1.04012e-13 -1.80096e-13 0)
(-1.25843e-13 -1.9022e-13 0)
(-2.21406e-13 -1.60825e-13 0)
(-2.38113e-13 -1.25684e-13 0)
(-1.4581e-13 -1.39538e-13 0)
(-1.1173e-13 -5.95252e-14 0)
(-3.31735e-16 -5.2507e-14 0)
(1.05104e-13 -5.0589e-15 0)
(1.12886e-13 -5.33415e-14 0)
(4.18175e-14 1.70754e-14 0)
(-2.66472e-14 -3.78247e-15 0)
(-7.46702e-14 -3.56653e-14 0)
(-4.7353e-14 -3.62082e-14 0)
(1.2568e-14 -8.27111e-15 0)
(-9.47556e-14 5.00719e-14 0)
(-8.53512e-14 2.52019e-14 0)
(-4.48588e-14 8.76805e-14 0)
(3.39238e-14 2.16639e-14 0)
(-6.92385e-15 -1.38224e-13 0)
(-9.27215e-15 -2.09093e-13 0)
(5.13406e-14 -1.69268e-13 0)
(3.39568e-14 -2.00208e-13 0)
(4.55024e-15 -1.27401e-13 0)
(1.72735e-14 -1.90728e-13 0)
(9.34599e-14 -1.55821e-13 0)
(1.80955e-13 -2.01465e-13 0)
(1.05575e-13 -1.29874e-13 0)
(-6.93994e-14 -1.77597e-13 0)
(-8.88508e-14 -1.71631e-13 0)
(3.87957e-14 -2.08263e-13 0)
(4.81702e-14 -2.49693e-13 0)
(1.42885e-14 -3.22443e-13 0)
(2.51293e-14 -3.04564e-13 0)
(-1.39945e-14 -2.29878e-13 0)
(-8.45395e-14 -2.61001e-13 0)
(-1.75234e-13 -2.37331e-13 0)
(-1.51925e-13 -1.93023e-13 0)
(-1.30994e-14 -2.16165e-13 0)
(1.06801e-13 -2.85556e-13 0)
(2.59127e-16 -2.61803e-13 0)
(-1.03565e-13 -2.99896e-13 0)
(-6.96452e-14 -2.63421e-13 0)
(-4.99218e-14 -2.49161e-13 0)
(-7.69192e-15 -2.18503e-13 0)
(1.55335e-14 -2.51774e-13 0)
(1.21287e-13 -1.93678e-13 0)
(1.29338e-13 -2.37854e-13 0)
(5.56224e-14 -2.028e-13 0)
(6.2595e-14 -1.74792e-13 0)
(7.74125e-14 -1.86253e-13 0)
(3.41336e-14 -1.3541e-13 0)
(2.00843e-14 -1.27259e-13 0)
(1.80016e-14 -2.20022e-13 0)
(-4.99208e-14 -2.91678e-13 0)
(-2.63093e-14 -1.77787e-13 0)
(6.17948e-14 -1.82533e-13 0)
(7.05863e-14 -2.43876e-13 0)
(6.33681e-15 -2.27634e-13 0)
(-5.42754e-14 -2.84186e-13 0)
(-1.04108e-13 -2.45366e-13 0)
(-1.43413e-13 -2.37182e-13 0)
(-1.65963e-13 -2.75093e-13 0)
(-3.08235e-14 -2.42544e-13 0)
(7.91635e-14 -2.35656e-13 0)
(8.18834e-14 -2.83407e-13 0)
(4.11509e-14 -3.06381e-13 0)
(6.52017e-14 -2.271e-13 0)
(1.78841e-13 -2.69358e-13 0)
(2.12286e-13 -3.1499e-13 0)
(1.90817e-14 -3.2728e-13 0)
(5.48495e-14 -2.9013e-13 0)
(5.99912e-14 -3.33875e-13 0)
(-8.15261e-14 -2.49554e-13 0)
(-6.55209e-14 -1.50299e-13 0)
(-3.04509e-14 -1.62274e-13 0)
(-1.21622e-13 -1.31928e-13 0)
(-1.41602e-13 -8.92619e-14 0)
(-1.30666e-13 -2.15329e-13 0)
(-1.66147e-13 -2.24239e-13 0)
(-7.25393e-14 -1.60771e-13 0)
(4.838e-14 -2.35373e-13 0)
(1.45591e-13 -2.97235e-13 0)
(8.39055e-14 -1.86034e-13 0)
(-6.34347e-14 -1.46434e-13 0)
(7.94606e-15 -1.91303e-13 0)
(6.24314e-14 -1.46954e-13 0)
(-4.95933e-14 -1.70707e-13 0)
(-5.4926e-14 -1.56296e-13 0)
(8.55398e-14 -1.84117e-13 0)
(5.63705e-14 -2.05198e-13 0)
(2.85245e-14 -2.41711e-13 0)
(8.94213e-14 -3.12853e-13 0)
(1.82054e-13 -3.55604e-13 0)
(1.3883e-13 -2.78856e-13 0)
(1.2305e-14 -3.23447e-13 0)
(9.42323e-14 -3.58848e-13 0)
(3.08899e-14 -3.42929e-13 0)
(-1.006e-13 -3.87929e-13 0)
(-2.80362e-14 -3.06492e-13 0)
(9.10942e-14 -2.46459e-13 0)
(6.2332e-14 -2.47309e-13 0)
(-2.05461e-14 -2.17647e-13 0)
(-1.14029e-13 -3.49135e-13 0)
(-1.96513e-13 -3.29675e-13 0)
(-1.11983e-13 -2.95435e-13 0)
(9.0566e-14 -3.73434e-13 0)
(1.86795e-13 -3.60123e-13 0)
(1.07764e-13 -2.48771e-13 0)
(1.17481e-14 -1.86872e-13 0)
(7.95648e-15 -1.92743e-13 0)
(-1.19002e-13 -1.28652e-13 0)
(-1.57027e-13 -1.63294e-13 0)
(-1.88767e-14 -1.85289e-13 0)
(2.94045e-14 -3.30925e-13 0)
(-1.23113e-13 -3.08216e-13 0)
(-1.52351e-13 -3.07657e-13 0)
(-1.94474e-13 -2.90237e-13 0)
(-3.71854e-14 -3.44648e-13 0)
(6.44185e-14 -2.91379e-13 0)
(2.79227e-14 -3.62197e-13 0)
(5.86478e-14 -3.65738e-13 0)
(6.0259e-14 -2.89595e-13 0)
(-2.60106e-14 -2.39726e-13 0)
(-1.60844e-14 -1.1666e-13 0)
(2.62351e-14 -8.64209e-14 0)
(-3.18802e-14 -1.6644e-13 0)
(-4.16067e-14 -1.78193e-13 0)
(-7.32899e-14 -2.77042e-13 0)
(-1.35427e-13 -2.3203e-13 0)
(-9.13965e-14 -1.65092e-13 0)
(2.2775e-14 -2.12975e-13 0)
(1.54837e-13 -2.90868e-13 0)
(3.67698e-14 -1.88108e-13 0)
(-2.43942e-14 -2.54986e-13 0)
(-4.94434e-14 -2.00773e-13 0)
(-9.45046e-14 -2.25197e-13 0)
(-4.95306e-14 -1.71403e-13 0)
(7.91542e-14 -1.55797e-13 0)
(1.64183e-13 -6.81588e-14 0)
(4.58126e-14 -1.02273e-13 0)
(1.0577e-15 -2.2154e-13 0)
(-9.05362e-15 -2.3555e-13 0)
(1.25541e-13 -3.27757e-13 0)
(1.98036e-13 -2.69607e-13 0)
(5.82117e-14 -3.18501e-13 0)
(-5.07266e-14 -2.6346e-13 0)
(-1.24745e-13 -2.68534e-13 0)
(-1.92116e-13 -4.23366e-13 0)
(-1.17161e-13 -3.6549e-13 0)
(-3.50129e-14 -2.67194e-13 0)
(-1.98181e-13 -2.46661e-13 0)
(-2.71792e-13 -2.8775e-13 0)
(-1.85518e-13 -2.23082e-13 0)
(-1.11814e-13 -2.01042e-13 0)
(-3.02398e-14 -2.17544e-13 0)
(3.89964e-14 -1.64098e-13 0)
(2.62181e-14 -1.90425e-13 0)
(7.58895e-15 -1.81532e-13 0)
(-2.1684e-14 -1.94953e-13 0)
(-5.30967e-14 -1.4298e-13 0)
(4.9103e-14 -1.4716e-13 0)
(-4.43337e-16 -1.64659e-13 0)
(-1.96746e-14 -2.04202e-13 0)
(-9.67329e-15 -2.66873e-13 0)
(-1.1514e-14 -2.77355e-13 0)
(-1.89551e-14 -3.185e-13 0)
(2.47023e-14 -2.64713e-13 0)
(-3.82443e-14 -1.89779e-13 0)
(-1.42959e-13 -1.68898e-13 0)
(-1.99987e-13 -1.12656e-13 0)
(-1.29419e-13 -2.77343e-14 0)
(-5.11169e-14 -1.2125e-14 0)
(-6.20647e-14 3.63595e-14 0)
(-2.97156e-14 7.83916e-14 0)
(4.66733e-14 8.39012e-14 0)
(5.86756e-14 1.25725e-17 0)
(-3.39318e-15 -2.71777e-14 0)
(-7.30591e-14 -2.61123e-14 0)
(-5.45107e-14 -9.26146e-15 0)
(6.28347e-15 5.24555e-15 0)
(5.93748e-14 -6.2125e-14 0)
(-3.53534e-14 -1.13647e-14 0)
(-7.54075e-14 4.89639e-14 0)
(-5.23914e-14 -1.33929e-14 0)
(-5.34727e-14 -1.31098e-14 0)
(6.83112e-14 -1.77411e-13 0)
(-2.69332e-14 -1.72422e-13 0)
(1.50101e-14 -6.34823e-14 0)
(-1.63715e-14 -1.54566e-13 0)
(-3.42409e-14 -2.58077e-13 0)
(1.27337e-14 -2.95516e-13 0)
(1.20929e-13 -2.28939e-13 0)
(1.84052e-13 -2.84754e-13 0)
(1.20008e-13 -2.1513e-13 0)
(-1.41249e-13 -2.93619e-13 0)
(-8.35028e-14 -2.30722e-13 0)
(2.08349e-14 -2.00317e-13 0)
(1.31873e-14 -2.93225e-13 0)
(-6.28842e-15 -2.26143e-13 0)
(5.15335e-14 -2.1321e-13 0)
(-3.04791e-14 -2.24706e-13 0)
(-1.21354e-13 -2.89429e-13 0)
(-4.69043e-14 -2.53257e-13 0)
(-9.62655e-14 -2.32247e-13 0)
(-1.29529e-13 -2.66953e-13 0)
(-1.2622e-14 -3.56703e-13 0)
(1.02982e-14 -3.67026e-13 0)
(-4.02372e-14 -2.92214e-13 0)
(-1.64198e-14 -2.37729e-13 0)
(-1.92689e-14 -2.21794e-13 0)
(-6.99311e-15 -2.47303e-13 0)
(3.75538e-14 -2.08457e-13 0)
(1.00393e-13 -1.46679e-13 0)
(6.02124e-14 -2.36713e-13 0)
(1.13087e-13 -2.51417e-13 0)
(1.10726e-13 -1.92731e-13 0)
(7.87416e-14 -1.53786e-13 0)
(4.83249e-14 -1.94918e-13 0)
(3.81071e-14 -1.98494e-13 0)
(-6.20275e-14 -2.2133e-13 0)
(-4.38232e-14 -2.61712e-13 0)
(-2.62295e-15 -1.86121e-13 0)
(-2.88043e-15 -2.4373e-13 0)
(1.53725e-14 -3.32661e-13 0)
(-4.20682e-15 -3.96582e-13 0)
(-3.66925e-14 -3.32797e-13 0)
(-1.18074e-13 -2.78192e-13 0)
(-1.76359e-13 -2.26206e-13 0)
(-5.27986e-14 -2.32919e-13 0)
(-7.60602e-15 -1.64737e-13 0)
(-2.83501e-14 -2.26046e-13 0)
(-1.6936e-14 -3.4412e-13 0)
(1.08849e-13 -3.73278e-13 0)
(1.88224e-13 -2.71487e-13 0)
(1.47497e-13 -2.88869e-13 0)
(1.33895e-13 -3.23039e-13 0)
(8.30608e-14 -3.46573e-13 0)
(2.37589e-14 -2.45152e-13 0)
(2.96772e-14 -3.00289e-13 0)
(3.26504e-14 -2.82495e-13 0)
(-8.80036e-15 -2.15215e-13 0)
(-2.19664e-14 -1.51638e-13 0)
(-8.27793e-14 -1.7045e-13 0)
(-1.529e-13 -9.66496e-14 0)
(-2.07137e-13 -9.6777e-14 0)
(-1.28312e-13 -7.07546e-14 0)
(-6.03038e-14 -5.2922e-14 0)
(1.23069e-14 -1.52413e-13 0)
(1.57234e-13 -2.01466e-13 0)
(1.14999e-13 -2.16522e-13 0)
(-6.44898e-14 -1.95817e-13 0)
(-3.08041e-14 -1.70289e-13 0)
(8.19957e-15 -2.79185e-13 0)
(-2.8314e-14 -2.38987e-13 0)
(1.7092e-14 -1.89632e-13 0)
(2.887e-14 -1.37863e-13 0)
(6.83977e-15 -1.52353e-13 0)
(6.73477e-14 -1.30673e-13 0)
(9.12639e-14 -1.58499e-13 0)
(1.4556e-13 -2.31767e-13 0)
(1.48385e-13 -2.37405e-13 0)
(-7.64426e-15 -2.61646e-13 0)
(3.9095e-14 -2.23703e-13 0)
(6.43692e-15 -2.64267e-13 0)
(-5.9901e-14 -2.66346e-13 0)
(2.33058e-14 -2.65174e-13 0)
(5.50205e-14 -2.28303e-13 0)
(3.50645e-14 -3.317e-13 0)
(-8.05374e-14 -3.65788e-13 0)
(-1.98643e-13 -3.35307e-13 0)
(-1.39588e-13 -2.57725e-13 0)
(-6.87341e-14 -1.98593e-13 0)
(1.36256e-14 -2.753e-13 0)
(2.0114e-13 -3.05525e-13 0)
(1.70939e-13 -3.57769e-13 0)
(2.08729e-14 -2.79009e-13 0)
(1.05234e-14 -2.72648e-13 0)
(-6.28218e-14 -3.1589e-13 0)
(-1.38444e-13 -2.72652e-13 0)
(-1.10648e-13 -2.89426e-13 0)
(-1.22171e-13 -3.30629e-13 0)
(-1.01874e-13 -3.67841e-13 0)
(-1.15261e-13 -2.91094e-13 0)
(-7.79407e-14 -2.58286e-13 0)
(-1.79687e-14 -2.294e-13 0)
(-1.38723e-14 -2.89733e-13 0)
(-1.84941e-14 -3.0384e-13 0)
(7.74147e-14 -2.696e-13 0)
(1.15695e-13 -3.63445e-13 0)
(1.37485e-13 -2.79173e-13 0)
(7.2639e-14 -1.65393e-13 0)
(-5.8269e-14 -1.20201e-13 0)
(-1.12541e-13 -1.80252e-13 0)
(-5.48395e-14 -1.86527e-13 0)
(-4.4735e-14 -2.54097e-13 0)
(-6.10413e-14 -2.40076e-13 0)
(-3.93361e-14 -1.93146e-13 0)
(-3.43924e-14 -2.25755e-13 0)
(1.11116e-13 -2.34611e-13 0)
(7.3574e-14 -2.91163e-13 0)
(2.23814e-14 -2.42379e-13 0)
(6.25335e-16 -1.99553e-13 0)
(-5.4089e-14 -2.12166e-13 0)
(1.67852e-14 -1.69419e-13 0)
(7.29054e-14 -1.68521e-13 0)
(7.15393e-14 -2.45462e-13 0)
(-5.06204e-14 -2.97437e-13 0)
(-4.23002e-14 -3.05601e-13 0)
(3.42344e-14 -3.09614e-13 0)
(9.32006e-14 -2.72412e-13 0)
(1.44399e-13 -3.65609e-13 0)
(9.0274e-14 -2.89805e-13 0)
(2.77005e-14 -3.32805e-13 0)
(-1.81521e-13 -3.31362e-13 0)
(-2.33089e-13 -4.01264e-13 0)
(-5.99194e-14 -3.36108e-13 0)
(-1.09136e-14 -3.65466e-13 0)
(-1.39803e-13 -3.0812e-13 0)
(-2.00994e-13 -2.08141e-13 0)
(-1.32001e-13 -1.90555e-13 0)
(-1.60991e-13 -2.4172e-13 0)
(-4.89558e-14 -2.75235e-13 0)
(-1.54945e-15 -2.09273e-13 0)
(-5.63677e-14 -2.45672e-13 0)
(-3.42519e-14 -2.39399e-13 0)
(4.88533e-14 -2.06037e-13 0)
(5.39661e-14 -1.56489e-13 0)
(4.74035e-14 -2.02464e-13 0)
(-4.79186e-15 -1.98063e-13 0)
(-7.96358e-14 -2.31526e-13 0)
(-1.5666e-13 -3.09522e-13 0)
(-1.00258e-13 -4.02867e-13 0)
(6.83685e-14 -3.46839e-13 0)
(9.07703e-14 -2.94695e-13 0)
(1.29343e-15 -3.26025e-13 0)
(-6.16514e-14 -2.79392e-13 0)
(-9.23587e-14 -1.99387e-13 0)
(-6.30933e-14 -1.48373e-13 0)
(-3.17572e-14 -1.5045e-13 0)
(-3.77006e-14 -1.17564e-13 0)
(-3.22254e-14 -7.25786e-14 0)
(-3.97975e-15 -1.27513e-13 0)
(3.96024e-14 -1.51476e-13 0)
(6.834e-14 -1.2463e-13 0)
(2.8988e-14 -7.71062e-14 0)
(-4.96979e-14 -1.18607e-14 0)
(-1.08733e-13 -6.14184e-14 0)
(-5.57722e-15 -9.71967e-14 0)
(1.37831e-15 -8.78264e-14 0)
(-7.33856e-14 -3.16441e-14 0)
(-3.89552e-14 -5.50398e-14 0)
(-2.3202e-15 -9.88927e-14 0)
(1.04239e-13 -3.18953e-13 0)