/*--------------------------------*- C++ -*----------------------------------*\
  =========                 |
  \\      /  F ield         | OpenFOAM: The Open Source CFD Toolbox
   \\    /   O peration     | Website:  https://openfoam.org
    \\  /    A nd           | Version:  13
     \\/     M anipulation  |
\*---------------------------------------------------------------------------*/
FoamFile
{
    format      ascii;
    class       volVectorField;
    location    "0.0004";
    object      U;
}
// * * * * * * * * * * * * * * * * * * * * * * * * * * * * * * * * * * * * * //

dimensions      [0 1 -1 0 0 0 0];

internalField   nonuniform List<vector> 
33334
(
(1.27081e-13 -2.36978e-13 0)
(-2.64402e-14 -1.84692e-13 0)
(1.7742e-14 -1.73765e-13 0)
(-1.342e-14 -1.54139e-13 0)
(1.22859e-13 -9.8939e-14 0)
(2.06272e-13 -1.1499e-13 0)
(1.34104e-14 -6.42074e-14 0)
(-6.24238e-14 -5.21712e-14 0)
(5.54219e-14 -2.05417e-14 0)
(1.31312e-13 -1.34413e-13 0)
(4.45805e-14 -2.1859e-13 0)
(-8.29375e-14 -1.55933e-13 0)
(-1.77424e-13 -1.10769e-13 0)
(-1.38581e-13 -8.03986e-14 0)
(-1.20018e-13 -1.76755e-13 0)
(-1.52765e-13 -2.3214e-13 0)
(-8.80026e-14 -1.25201e-13 0)
(8.49903e-16 -4.53524e-14 0)
(-4.11959e-14 -8.00523e-14 0)
(-1.77774e-14 -6.61892e-14 0)
(2.12776e-13 -1.56175e-13 0)
(1.36898e-13 -1.44241e-13 0)
(3.49391e-14 -2.04225e-13 0)
(-4.17029e-14 -2.93167e-13 0)
(-5.89122e-14 -3.00842e-13 0)
(-4.46635e-14 -2.2424e-13 0)
(2.35398e-14 -3.46912e-14 0)
(1.81431e-13 -3.80971e-14 0)
(3.99841e-14 -5.23407e-14 0)
(7.46239e-14 -7.04946e-14 0)
(1.12503e-13 -1.62171e-13 0)
(-1.17638e-13 -1.44813e-13 0)
(-1.82777e-13 -2.45017e-13 0)
(-4.01924e-14 -1.82734e-13 0)
(4.15459e-14 -1.14148e-13 0)
(-4.79796e-14 -2.22806e-13 0)
(-1.03736e-13 -9.83766e-14 0)
(1.3351e-14 -5.82811e-14 0)
(-3.49034e-14 -7.96661e-14 0)
(-7.5876e-15 -1.28822e-13 0)
(9.36316e-14 -2.09478e-13 0)
(3.0958e-15 -2.21126e-13 0)
(-5.99941e-14 -1.3195e-13 0)
(-1.25922e-13 -1.08735e-13 0)
(-9.66971e-14 1.9738e-14 0)
(-9.27722e-15 5.28956e-14 0)
(-4.76277e-14 -6.7228e-14 0)
(-1.47257e-14 -1.11067e-13 0)
(4.24268e-14 -1.23165e-13 0)
(2.77286e-15 -1.01708e-13 0)
(9.06129e-14 -7.21928e-14 0)
(6.89293e-15 -1.96156e-13 0)
(-1.4092e-13 -8.04514e-14 0)
(6.42649e-14 5.3613e-15 0)
(1.2194e-13 -5.88383e-14 0)
(1.07921e-13 -6.01204e-14 0)
(1.16668e-13 -5.245e-14 0)
(7.04232e-14 -4.31604e-14 0)
(7.89999e-14 -7.50397e-14 0)
(-6.6747e-14 -5.59916e-14 0)
(-1.77315e-13 -1.63835e-13 0)
(-1.96262e-13 -1.63504e-14 0)
(2.35929e-14 -7.12208e-14 0)
(-2.00664e-14 -9.46441e-14 0)
(-1.22367e-14 -1.48416e-13 0)
(-1.04211e-13 -9.76432e-14 0)
(-6.60177e-14 -6.09902e-14 0)
(6.97153e-14 -3.59171e-14 0)
(6.92937e-15 -2.0454e-13 0)
(-1.02273e-13 -6.51985e-14 0)
(5.61218e-14 1.20603e-14 0)
(1.68304e-14 -1.6683e-15 0)
(-2.2623e-14 2.65505e-14 0)
(8.41093e-15 -7.6409e-14 0)
(-7.15991e-14 -1.47543e-13 0)
(-8.51605e-14 -9.59407e-14 0)
(-4.95672e-14 -9.57896e-14 0)
(-4.43318e-14 -7.01457e-14 0)
(-8.12616e-14 -1.04571e-13 0)
(-8.96458e-14 -1.12439e-13 0)
(-7.53702e-14 -7.6707e-14 0)
(-2.73446e-14 -9.89281e-14 0)
(6.86035e-14 -6.49859e-14 0)
(1.18428e-13 -8.50206e-14 0)
(3.95306e-14 -8.28337e-14 0)
(2.87963e-14 -1.68669e-13 0)
(-4.5674e-15 -2.19953e-14 0)
(2.46574e-13 3.33621e-14 0)
(2.02825e-13 -1.14495e-13 0)
(7.68529e-14 -2.72054e-13 0)
(2.2367e-14 -1.87334e-13 0)
(-6.93084e-15 -2.03834e-13 0)
(1.093e-13 -1.82238e-13 0)
(3.15559e-16 -2.80557e-13 0)
(-1.24971e-13 -1.59411e-13 0)
(-5.16481e-14 -9.79114e-14 0)
(-2.39329e-14 -1.32007e-14 0)
(-4.12997e-14 -3.12114e-15 0)
(6.36084e-14 3.85945e-14 0)
(1.35998e-14 -2.11099e-14 0)
(-1.51941e-13 -7.0948e-15 0)
(-1.26865e-14 -8.68259e-14 0)
(1.00204e-13 -1.63391e-13 0)
(-5.80509e-14 -2.49135e-13 0)
(-1.66149e-13 -1.12674e-13 0)
(-8.46628e-14 -4.82866e-14 0)
(5.60312e-14 5.3609e-14 0)
(5.52472e-14 5.16538e-14 0)
(2.13515e-14 8.98041e-14 0)
(6.28905e-14 7.17165e-15 0)
(-2.2124e-14 -2.00737e-13 0)
(-8.04476e-14 -1.19271e-13 0)
(-4.22509e-14 -2.5351e-13 0)
(-1.0604e-13 -1.37117e-13 0)
(4.58166e-15 -1.8379e-13 0)
(5.45544e-14 -1.11683e-13 0)
(4.67554e-14 -1.20438e-13 0)
(7.41068e-14 -6.80375e-14 0)
(2.88039e-14 -1.95982e-13 0)
(-1.09383e-14 -1.19531e-13 0)
(3.05121e-14 -1.90622e-13 0)
(2.12219e-14 -1.51785e-13 0)
(-8.28581e-14 -2.45484e-13 0)
(-1.14401e-13 -1.61042e-13 0)
(-1.4502e-13 -1.68183e-13 0)
(-7.78762e-14 -1.30343e-13 0)
(7.71374e-14 -1.66402e-13 0)
(1.32231e-13 -2.23528e-13 0)
(-1.1626e-13 -2.49213e-13 0)
(-1.87204e-13 -1.39648e-13 0)
(-2.74453e-14 -1.14848e-13 0)
(6.85125e-14 8.85004e-15 0)
(5.41295e-14 -2.25233e-14 0)
(6.34273e-14 2.88759e-14 0)
(1.15551e-13 -2.94766e-14 0)
(-1.12261e-14 -2.33863e-13 0)
(-2.83658e-14 -1.68174e-13 0)
(-4.72581e-14 -3.06049e-13 0)
(-1.07724e-13 -2.66717e-13 0)
(-1.41661e-14 -2.64162e-13 0)
(8.30166e-14 -1.59488e-13 0)
(1.32796e-13 -1.1277e-13 0)
(2.02305e-13 -2.06438e-13 0)
(1.71491e-13 -2.82037e-13 0)
(1.01411e-13 -1.45403e-13 0)
(-4.06432e-14 -1.17658e-13 0)
(-1.36241e-13 -1.54418e-13 0)
(-1.03999e-13 -1.60502e-13 0)
(1.33644e-14 -5.56448e-14 0)
(2.67749e-14 -1.18549e-13 0)
(-1.49942e-13 -7.83044e-14 0)
(-3.46371e-14 -6.6538e-14 0)
(5.84013e-14 -1.57034e-13 0)
(-1.33422e-13 -2.18147e-13 0)
(-1.87691e-13 -1.74298e-14 0)
(-5.22961e-14 2.99793e-14 0)
(7.50029e-14 1.22472e-13 0)
(1.06111e-13 3.59495e-14 0)
(1.53154e-13 5.90698e-14 0)
(6.59159e-14 6.65951e-15 0)
(1.11821e-14 -1.1297e-13 0)
(1.17258e-14 -1.08682e-13 0)
(-6.56202e-14 -2.10274e-13 0)
(-1.01385e-13 -1.20858e-13 0)
(5.47187e-14 -1.62732e-13 0)
(1.09684e-13 -1.77998e-13 0)
(3.65289e-15 -2.68282e-13 0)
(1.05436e-13 -2.56199e-13 0)
(1.87554e-14 -2.10593e-13 0)
(3.7873e-14 -1.54177e-13 0)
(7.24889e-14 -1.93038e-13 0)
(1.5508e-13 -1.37537e-13 0)
(1.95423e-13 -1.76209e-13 0)
(8.61346e-15 -2.23496e-13 0)
(-6.28056e-15 -2.01801e-13 0)
(7.50403e-14 -6.6607e-14 0)
(3.0729e-14 -1.21812e-13 0)
(2.57166e-14 -1.98447e-13 0)
(-1.20006e-14 -2.31493e-13 0)
(-1.17477e-13 -1.90609e-13 0)
(-1.74152e-13 -1.78604e-13 0)
(-2.60485e-13 -1.2661e-13 0)
(-1.47808e-13 -2.1465e-13 0)
(3.60787e-14 -1.37628e-13 0)
(4.81506e-15 -2.16621e-14 0)
(-6.76337e-14 -8.54347e-14 0)
(-6.18652e-14 -2.36335e-15 0)
(1.69016e-13 -1.83412e-13 0)
(1.47819e-13 -2.06256e-13 0)
(-5.50243e-16 -1.68884e-13 0)
(-9.4667e-14 -2.16205e-13 0)
(-6.00628e-14 -2.42322e-13 0)
(7.96322e-14 -1.87616e-13 0)
(9.44032e-14 -5.1469e-14 0)
(1.47949e-13 -1.00384e-13 0)
(6.44824e-14 -9.31355e-14 0)
(2.04282e-14 -4.84707e-14 0)
(6.29626e-14 -1.59292e-13 0)
(-1.96024e-13 -1.81792e-13 0)
(-1.99094e-13 -2.39835e-13 0)
(2.98421e-14 -2.27756e-13 0)
(-1.33584e-14 -1.86701e-13 0)
(-6.88384e-14 -1.86542e-13 0)
(-2.83301e-14 -1.38287e-13 0)
(2.26017e-14 -1.52825e-13 0)
(4.12162e-14 -1.1894e-13 0)
(-4.34956e-14 -3.63868e-14 0)
(-4.70078e-15 -1.67502e-13 0)
(2.21676e-14 -1.67922e-13 0)
(1.77311e-15 -1.52647e-13 0)
(-8.0757e-14 -8.76885e-14 0)
(-9.12592e-14 -6.67254e-14 0)
(-6.3528e-14 -5.49672e-14 0)
(-1.03725e-13 -1.3263e-13 0)
(-5.43715e-14 -1.44438e-13 0)
(2.007e-14 -1.89582e-13 0)
(2.0742e-14 -1.53495e-13 0)
(6.55376e-14 -1.37313e-13 0)
(1.37001e-14 -1.70487e-13 0)
(-2.72093e-14 -1.29041e-13 0)
(8.3997e-14 -5.13552e-14 0)
(1.06749e-13 -1.12269e-13 0)
(1.17361e-13 -8.75422e-14 0)
(9.62214e-14 -1.42015e-13 0)
(5.06164e-14 -1.30629e-13 0)
(7.18651e-14 -1.74493e-13 0)
(-7.66239e-14 -2.06915e-13 0)
(-1.46529e-13 -1.97622e-13 0)
(-1.71239e-13 -8.52287e-14 0)
(-5.70974e-14 -4.37341e-14 0)
(-8.89574e-15 -1.36794e-13 0)
(4.99709e-15 -1.14531e-13 0)
(-8.79597e-14 -1.31207e-13 0)
(-2.39711e-14 -8.64115e-14 0)
(2.05823e-14 -9.31124e-14 0)
(-4.51794e-14 -1.08569e-13 0)
(-1.77326e-14 -1.0099e-13 0)
(9.20191e-14 -9.58235e-14 0)
(8.86221e-14 -1.06164e-13 0)
(-9.30509e-15 -5.68699e-14 0)
(-7.95481e-14 -1.05295e-13 0)
(-6.39075e-14 -1.22313e-13 0)
(-5.82915e-14 -9.68636e-14 0)
(-8.49651e-14 -3.17967e-14 0)
(-1.27607e-13 -1.43783e-13 0)
(-1.07976e-13 -1.08822e-13 0)
(-5.01858e-14 -1.50476e-13 0)
(-8.84433e-14 -1.45362e-13 0)
(-4.45437e-14 -1.82247e-13 0)
(8.27373e-14 -1.06056e-13 0)
(1.6775e-13 -2.07432e-13 0)
(2.85703e-14 -1.7873e-13 0)
(6.60546e-14 -1.64987e-13 0)
(1.12521e-13 -9.05831e-14 0)
(1.90566e-13 -1.9736e-14 0)
(9.23883e-14 -1.62472e-13 0)
(9.00656e-14 -1.87769e-13 0)
(4.10084e-14 -1.89137e-13 0)
(-1.49721e-14 -1.75535e-13 0)
(6.34646e-14 -1.90352e-13 0)
(1.31383e-14 -2.49315e-13 0)
(-5.7391e-14 -2.26976e-13 0)
(-4.40188e-14 -1.73542e-13 0)
(1.54616e-14 -1.35301e-13 0)
(-3.59814e-15 -1.01004e-13 0)
(2.61505e-14 -7.26772e-14 0)
(-2.58447e-14 -8.45057e-14 0)
(-8.75101e-14 -8.81674e-14 0)
(-5.36772e-14 1.71519e-14 0)
(-1.61221e-14 -1.28797e-13 0)
(-2.17254e-14 -1.6699e-13 0)
(-6.58719e-14 -1.68321e-13 0)
(-3.2401e-14 -9.28326e-14 0)
(7.93455e-14 -3.39996e-14 0)
(4.76061e-14 2.09441e-14 0)
(2.78298e-14 -1.43848e-14 0)
(-3.8005e-14 -4.00309e-14 0)
(-4.35013e-14 -1.15444e-13 0)
(-8.76118e-14 -1.07066e-13 0)
(-3.82645e-14 -1.62577e-13 0)
(-8.38258e-14 -2.21395e-13 0)
(-1.11627e-14 -1.62029e-13 0)
(5.56973e-14 -1.29934e-13 0)
(6.29973e-14 -5.67441e-14 0)
(7.89641e-14 -6.72178e-14 0)
(-8.77543e-15 -9.08681e-14 0)
(-4.01518e-14 -1.87054e-13 0)
(8.67411e-15 -2.7147e-13 0)
(8.65133e-16 -3.33947e-13 0)
(-5.24406e-14 -3.7082e-13 0)
(-7.88349e-14 -2.96842e-13 0)
(-1.11102e-13 -2.08435e-13 0)
(-3.37216e-14 -2.44592e-13 0)
(3.20906e-14 -2.14782e-13 0)
(6.03932e-14 -3.1321e-13 0)
(-4.6718e-14 -2.48421e-13 0)
(-1.14472e-13 -1.64282e-13 0)
(-2.21042e-14 -9.0065e-14 0)
(9.2236e-14 -1.7818e-14 0)
(6.21185e-14 1.05319e-14 0)
(8.8353e-14 -3.77366e-14 0)
(-1.16771e-14 -1.09205e-13 0)
(-2.32358e-14 -1.96778e-13 0)
(-4.49199e-14 -1.69886e-13 0)
(-9.04846e-14 -2.03403e-13 0)
(-6.50233e-14 -1.98314e-13 0)
(5.13912e-14 -1.23e-13 0)
(1.48746e-13 -6.1732e-14 0)
(1.14146e-13 -1.63986e-14 0)
(1.50549e-13 -7.27457e-14 0)
(2.02961e-13 -1.62659e-13 0)
(1.06084e-13 -2.07712e-13 0)
(-5.91437e-14 -3.21466e-13 0)
(-8.58868e-14 -3.21797e-13 0)
(-3.79709e-14 -2.61067e-13 0)
(-1.5512e-14 -1.58813e-13 0)
(1.50707e-14 -1.04441e-13 0)
(-4.90726e-14 -1.10856e-13 0)
(-3.67716e-14 -2.79203e-14 0)
(-6.46498e-14 -8.9133e-14 0)
(-5.65541e-14 -1.11705e-13 0)
(-4.57489e-14 -5.89148e-14 0)
(-4.20919e-14 3.94504e-14 0)
(-1.25003e-14 3.06639e-14 0)
(6.52882e-14 4.72524e-14 0)
(1.34226e-13 -4.08403e-14 0)
(8.20297e-14 -1.10445e-13 0)
(4.13595e-15 -1.2854e-13 0)
(-7.59453e-14 -1.46628e-13 0)
(-9.71716e-14 -1.66948e-13 0)
(-5.36276e-14 -1.21515e-13 0)
(2.33649e-14 -1.2425e-13 0)
(3.7048e-14 -1.72648e-13 0)
(-5.88006e-15 -2.1876e-13 0)
(1.49468e-13 -2.18201e-13 0)
(4.55405e-14 -1.95044e-13 0)
(-1.43898e-15 -1.16528e-13 0)
(2.14384e-14 -1.70801e-13 0)
(1.48834e-13 -1.56662e-13 0)
(1.1383e-13 -3.43432e-13 0)
(-5.53583e-14 -3.97256e-13 0)
(7.46196e-14 -3.26874e-13 0)
(1.49629e-13 -2.02555e-13 0)
(4.99209e-14 -2.03519e-13 0)
(-1.61738e-14 -2.31359e-13 0)
(-5.59974e-14 -2.7975e-13 0)
(-1.14204e-13 -2.55434e-13 0)
(-1.21841e-13 -1.80274e-13 0)
(-1.81565e-13 -1.18188e-13 0)
(-1.31356e-13 -6.29033e-14 0)
(2.35216e-14 -1.55958e-13 0)
(4.64828e-14 -9.50438e-14 0)
(-1.92147e-14 -1.36371e-13 0)
(-8.90394e-14 -9.74274e-14 0)
(6.41992e-14 -1.07828e-13 0)
(1.48128e-13 -2.47074e-13 0)
(3.32646e-14 -2.28199e-13 0)
(-8.27019e-14 -1.80197e-13 0)
(-7.91614e-14 -9.41487e-14 0)
(7.16239e-14 -5.7135e-14 0)
(1.04194e-13 -6.69124e-14 0)
(9.20046e-14 -6.78987e-14 0)
(7.71436e-14 -1.74828e-13 0)
(4.4836e-14 -1.2757e-13 0)
(-7.07233e-15 -2.23903e-13 0)
(-2.14664e-13 -2.6825e-13 0)
(-1.69921e-13 -1.17263e-13 0)
(-1.67717e-14 -1.34324e-13 0)
(2.40325e-14 -2.23113e-13 0)
(-2.63616e-14 -1.57278e-13 0)
(-3.85909e-14 -1.57987e-13 0)
(4.18348e-14 -8.86756e-14 0)
(1.07138e-13 -1.55754e-13 0)
(1.27983e-14 -7.9654e-14 0)
(-5.33838e-14 -1.05547e-13 0)
(-2.12416e-14 -1.07697e-13 0)
(-1.61073e-14 -1.68177e-13 0)
(-7.12269e-14 -1.33802e-13 0)
(-1.09025e-13 -1.55253e-13 0)
(-6.50727e-14 -1.03514e-13 0)
(-9.31992e-14 -7.75051e-14 0)
(-6.29962e-14 -5.70466e-14 0)
(5.63579e-14 -5.44069e-14 0)
(2.46502e-14 -6.96726e-14 0)
(4.3649e-14 -1.43102e-13 0)
(1.20709e-14 -9.72521e-14 0)
(5.36839e-15 -1.44221e-13 0)
(8.41324e-14 -8.99401e-14 0)
(9.72254e-14 -1.31393e-13 0)
(1.18832e-13 -9.5462e-14 0)
(7.21113e-14 -1.00055e-13 0)
(2.51014e-14 -1.3179e-13 0)
(4.3087e-14 -1.13715e-13 0)
(-6.14162e-14 -1.52187e-13 0)
(-1.02247e-13 -9.29402e-14 0)
(-1.24979e-13 -9.05695e-14 0)
(-7.52903e-14 -6.86737e-14 0)
(-5.28308e-14 -1.18739e-13 0)
(5.27926e-15 -1.06443e-13 0)
(-7.97898e-14 -1.30655e-13 0)
(-7.77961e-15 -4.49386e-14 0)
(3.35337e-14 -1.47062e-13 0)
(-3.69834e-14 -6.60568e-14 0)
(-8.70016e-14 -1.06145e-13 0)
(5.0235e-14 -1.27176e-13 0)
(8.7424e-14 -1.30074e-13 0)
(2.28073e-14 -9.40919e-14 0)
(-3.08129e-15 -1.38129e-13 0)
(-8.35727e-14 -8.32093e-14 0)
(-2.37391e-14 -1.33208e-13 0)
(-7.16283e-14 -8.3721e-14 0)
(-1.50041e-13 -1.32489e-13 0)
(-9.99564e-14 -2.07168e-14 0)
(-8.25114e-14 -3.60062e-14 0)
(-9.95172e-14 -7.70177e-14 0)
(3.11817e-15 -4.07706e-14 0)
(6.41423e-14 1.34587e-14 0)
(1.08769e-13 -1.13369e-13 0)
(7.21932e-14 -1.39538e-13 0)
(4.39575e-14 -1.67153e-13 0)
(1.21867e-13 -1.78489e-13 0)
(1.77993e-13 -1.81752e-13 0)
(7.58365e-14 -1.63042e-13 0)
(1.51707e-13 -5.03751e-14 0)
(6.5475e-14 -1.29808e-13 0)
(4.31345e-16 -6.18318e-14 0)
(-1.22489e-14 -1.29473e-13 0)
(-5.47049e-14 -1.30269e-13 0)
(-4.02943e-14 -1.84939e-13 0)
(-6.69647e-14 -1.26732e-13 0)
(-6.38829e-14 -1.89656e-13 0)
(-1.47208e-14 -1.9485e-13 0)
(9.5673e-14 -1.69598e-13 0)
(1.36145e-14 -1.64848e-13 0)
(-4.13268e-14 -1.58604e-13 0)
(-4.6371e-14 -9.20157e-14 0)
(-6.0704e-14 -1.2516e-13 0)
(-1.73728e-14 -8.29423e-14 0)
(-1.0341e-13 -1.59994e-13 0)
(-3.30619e-15 -1.12293e-13 0)
(1.62227e-13 -1.04864e-13 0)
(3.87706e-14 -4.62165e-14 0)
(-3.10348e-14 -1.25368e-13 0)
(-8.75041e-15 -9.44527e-14 0)
(-3.51563e-14 -4.30989e-14 0)
(-7.23884e-14 -7.84957e-14 0)
(-1.37419e-13 -4.89608e-14 0)
(-1.03891e-13 -1.49455e-13 0)
(2.35224e-14 -9.61113e-14 0)
(1.43973e-13 -1.12521e-13 0)
(1.15431e-13 -4.10739e-14 0)
(6.3103e-14 -1.11287e-13 0)
(-6.4089e-14 -3.98663e-14 0)
(-1.04239e-13 -1.2392e-13 0)
(-8.14178e-14 -1.06345e-13 0)
(-1.11307e-13 -2.73142e-13 0)
(-5.31386e-14 -3.12772e-13 0)
(2.93214e-14 -3.00879e-13 0)
(-5.64257e-14 -2.0569e-13 0)
(-4.34547e-14 -2.2421e-13 0)
(1.54976e-14 -1.93706e-13 0)
(4.64262e-14 -2.64245e-13 0)
(1.53784e-14 -2.85805e-13 0)
(-6.72187e-14 -2.3626e-13 0)
(2.16754e-14 -1.53297e-13 0)
(1.75615e-13 -1.36227e-13 0)
(5.01017e-14 -7.05126e-14 0)
(-6.53581e-15 -1.26773e-13 0)
(-5.90956e-14 -1.85116e-13 0)
(-2.33984e-14 -1.73776e-13 0)
(3.10129e-14 -1.74852e-13 0)
(-3.66491e-14 -6.13137e-14 0)
(-5.41283e-14 -4.86654e-14 0)
(6.18162e-14 -5.40453e-17 0)
(1.75967e-13 -4.37621e-14 0)
(9.02047e-14 -6.92435e-14 0)
(1.02491e-13 -1.28817e-13 0)
(1.06028e-13 -1.54146e-13 0)
(-7.07792e-16 -2.36702e-13 0)
(-9.13211e-14 -2.87088e-13 0)
(-4.78395e-14 -2.83414e-13 0)
(-3.31903e-14 -2.32509e-13 0)
(7.78167e-14 -2.03828e-13 0)
(3.398e-14 -1.39128e-13 0)
(5.94784e-15 -1.51145e-13 0)
(3.86105e-14 -9.13818e-14 0)
(-4.92884e-14 -9.4106e-14 0)
(-6.91132e-14 -2.7755e-14 0)
(-2.42212e-14 -1.06655e-13 0)
(-2.0569e-14 -1.02837e-13 0)
(1.71501e-14 -1.19493e-13 0)
(1.33489e-14 -7.29033e-14 0)
(1.45004e-14 -1.41062e-13 0)
(2.6042e-14 -2.045e-13 0)
(1.36733e-14 -2.28289e-13 0)
(-1.90925e-14 -1.90752e-13 0)
(-8.13461e-14 -1.42446e-13 0)
(-7.73487e-14 -1.67291e-13 0)
(4.55913e-14 -5.39702e-14 0)
(4.72767e-14 -9.03714e-14 0)
(2.03684e-15 -2.90621e-14 0)
(1.0848e-13 -1.3523e-13 0)
(9.834e-14 -1.62352e-13 0)
(4.74385e-14 -1.20853e-13 0)
(2.74134e-14 -8.28264e-14 0)
(2.29671e-14 -1.69006e-13 0)
(-1.6255e-14 -2.44737e-13 0)
(2.63187e-14 -2.76697e-13 0)
(1.43866e-13 -1.6786e-13 0)
(1.6955e-13 -2.3927e-13 0)
(1.24383e-14 -2.62094e-13 0)
(-3.90644e-14 -2.63499e-13 0)
(-3.32956e-14 -2.61361e-13 0)
(-3.05022e-14 -2.02776e-13 0)
(-9.10488e-14 -1.35387e-13 0)
(-1.52328e-13 -1.80758e-13 0)
(-1.24971e-13 -4.85781e-14 0)
(3.03243e-14 -6.3942e-14 0)
(5.58961e-14 -9.41646e-14 0)
(-6.08187e-14 -1.38822e-13 0)
(-3.57826e-14 -1.442e-13 0)
(-5.19458e-15 -1.00012e-13 0)
(7.66559e-14 -1.91074e-13 0)
(4.2781e-14 -1.36842e-13 0)
(-2.49741e-14 -1.79049e-13 0)
(1.42042e-14 -1.06071e-13 0)
(8.15346e-14 -8.18015e-14 0)
(5.99627e-14 -7.50801e-14 0)
(5.20652e-14 -1.09729e-13 0)
(2.86973e-14 -1.72041e-13 0)
(-3.48041e-15 -1.87759e-13 0)
(-5.88847e-14 -2.09344e-13 0)
(-6.05712e-14 -2.00849e-13 0)
(-1.06242e-13 -1.30643e-13 0)
(-7.27282e-14 -8.62211e-14 0)
(6.70497e-15 -6.62714e-14 0)
(1.15165e-16 -4.66039e-14 0)
(1.98134e-16 -3.00402e-14 0)
(5.0602e-14 -4.8544e-14 0)
(7.32835e-14 -3.68553e-14 0)
(1.31121e-14 -5.48614e-14 0)
(-3.05407e-15 -4.81607e-14 0)
(-2.15044e-14 -4.04825e-14 0)
(-4.32584e-14 -6.04472e-14 0)
(-8.09837e-14 -7.46115e-14 0)
(-5.46531e-14 -9.5028e-14 0)
(-5.21267e-14 -5.61776e-14 0)
(-9.04621e-14 1.07567e-14 0)
(-3.9673e-14 7.92384e-14 0)
(1.65035e-14 2.76473e-14 0)
(-3.5991e-14 -3.33716e-15 0)
(3.34519e-15 -1.69724e-14 0)
(6.9767e-15 -4.59379e-14 0)
(-3.7957e-15 -3.37326e-14 0)
(6.47192e-14 -4.17902e-14 0)
(1.07825e-13 -5.86864e-14 0)
(1.4339e-13 -3.97798e-15 0)
(9.09595e-14 -4.5173e-14 0)
(4.42634e-14 -1.51634e-14 0)
(4.91871e-14 -4.28035e-14 0)
(-5.61717e-14 -2.66467e-14 0)
(-5.58716e-14 -6.07559e-14 0)
(-1.76633e-13 -8.10375e-14 0)
(-1.31251e-13 -1.09653e-13 0)
(-3.88199e-14 -5.7406e-14 0)
(-3.46049e-15 -9.74665e-14 0)
(1.01251e-14 -3.32395e-14 0)
(-2.88424e-14 1.5212e-14 0)
(-3.83298e-14 -2.11784e-14 0)
(-5.18458e-14 -6.59023e-14 0)
(-5.96093e-14 -4.22825e-14 0)
(4.13976e-14 -4.94816e-14 0)
(1.24966e-13 -2.75114e-14 0)
(4.66618e-14 1.68472e-15 0)
(-2.98209e-14 -2.56585e-14 0)
(-7.55146e-14 -2.25667e-14 0)
(-3.7319e-14 -3.56497e-14 0)
(-1.03802e-13 -8.94627e-14 0)
(-1.05954e-13 -1.49124e-13 0)
(-5.77568e-14 -1.0638e-13 0)
(-8.22653e-14 -7.47708e-14 0)
(-4.81422e-14 2.08336e-14 0)
(5.92445e-14 7.30687e-15 0)
(8.54198e-15 -1.31166e-14 0)
(3.68819e-14 -3.34743e-14 0)
(2.9829e-14 -2.87152e-14 0)
(2.86217e-14 -3.38177e-14 0)
(7.17619e-14 -8.15083e-14 0)
(1.64786e-13 -9.23691e-14 0)
(2.05474e-13 -7.62657e-15 0)
(1.39919e-13 7.49101e-14 0)
(3.71039e-14 1.48975e-14 0)
(-3.58421e-14 2.57189e-14 0)
(-1.18102e-14 -7.02268e-15 0)
(-7.66991e-14 -4.24724e-15 0)
(-1.01871e-13 -4.17401e-14 0)
(-7.35689e-14 -6.42891e-14 0)
(-9.41754e-14 -9.26058e-14 0)
(1.47645e-14 -5.05624e-14 0)
(3.27275e-14 -6.59474e-14 0)
(1.42254e-14 -1.14479e-13 0)
(-5.01175e-15 -9.11447e-14 0)
(-1.3795e-14 -1.39741e-13 0)
(-2.11043e-14 -5.99705e-14 0)
(-4.60075e-14 -6.76456e-14 0)
(-1.00284e-13 -3.76091e-14 0)
(1.08991e-15 -9.49782e-15 0)
(1.63795e-13 -2.17519e-14 0)
(4.22188e-14 -6.61866e-14 0)
(-3.12893e-14 -2.21284e-14 0)
(1.28514e-14 -6.3746e-14 0)
(-1.48429e-14 -2.00068e-14 0)
(-1.10704e-13 -1.07095e-14 0)
(-1.42888e-13 1.87077e-14 0)
(-1.47391e-13 -3.72409e-14 0)
(5.86053e-14 -2.10668e-14 0)
(1.8814e-13 9.3037e-15 0)
(1.17682e-13 2.19131e-14 0)
(5.92145e-14 -5.92195e-14 0)
(-9.35335e-14 -7.60603e-15 0)
(-1.11273e-13 -2.187e-14 0)
(-1.35488e-13 -4.54532e-16 0)
(-2.07944e-13 -6.10327e-14 0)
(-5.0468e-14 -1.21872e-13 0)
(2.56763e-14 -1.13654e-13 0)
(-2.08407e-14 -6.31496e-14 0)
(5.3501e-15 -8.92224e-14 0)
(-2.87354e-14 -1.16487e-13 0)
(-5.04415e-14 -8.08948e-14 0)
(1.90565e-14 -1.22548e-13 0)
(7.86467e-15 -1.29989e-13 0)
(7.26913e-14 -6.95496e-14 0)
(1.63601e-13 -1.03246e-13 0)
(4.64858e-14 -1.22555e-13 0)
(-2.73267e-14 -1.8718e-13 0)
(-6.72961e-14 -1.50416e-13 0)
(-1.5654e-14 -6.88313e-14 0)
(7.54413e-14 -3.80983e-14 0)
(-1.18969e-15 -6.80087e-14 0)
(-1.43523e-14 -7.16501e-14 0)
(5.29459e-14 -3.74892e-14 0)
(9.29008e-14 -7.71324e-14 0)
(3.86978e-14 -1.09095e-13 0)
(5.7915e-14 -1.28324e-13 0)
(5.10059e-14 -1.82828e-13 0)
(2.36765e-14 -2.43051e-13 0)
(-5.42999e-14 -1.69235e-13 0)
(-6.94889e-14 -9.23322e-14 0)
(7.34802e-15 -1.19174e-13 0)
(1.03926e-13 -6.67295e-14 0)
(3.51262e-15 -1.14835e-13 0)
(-1.82767e-14 -1.51563e-13 0)
(1.0505e-14 -2.05958e-13 0)
(-7.15646e-15 -1.40225e-13 0)
(-6.05825e-14 -8.95432e-14 0)
(-6.69916e-14 -1.12746e-13 0)
(-1.00881e-14 -1.38669e-13 0)
(5.14274e-14 -8.5664e-14 0)
(2.38361e-14 -1.2921e-13 0)
(-1.9276e-14 -1.51536e-13 0)
(-4.84299e-14 -1.74604e-13 0)
(8.77205e-15 -1.41498e-13 0)
(5.49e-15 -5.82396e-14 0)
(-5.82655e-14 -3.86475e-14 0)
(9.72826e-15 3.19442e-16 0)
(6.80991e-14 2.63485e-14 0)
(3.78758e-14 -4.71704e-15 0)
(-1.0613e-14 4.58062e-14 0)
(5.80713e-14 1.7666e-14 0)
(6.83804e-14 -4.26902e-14 0)
(5.79926e-14 -5.97768e-14 0)
(-2.15369e-14 -5.03883e-14 0)
(-3.77956e-14 -1.03829e-13 0)
(1.46568e-14 -5.35204e-14 0)
(5.68043e-14 -7.58602e-14 0)
(7.51713e-14 -3.13106e-14 0)
(4.74994e-14 -2.094e-13 0)
(4.43941e-14 -1.79852e-13 0)
(2.17435e-14 -2.01099e-13 0)
(5.89244e-14 -1.65751e-13 0)
(-4.22469e-15 -9.60448e-14 0)
(-1.1848e-13 -1.0912e-13 0)
(-8.40047e-14 -1.68006e-13 0)
(-7.03196e-14 -1.314e-13 0)
(4.65136e-15 -1.42519e-13 0)
(1.30253e-14 -1.6011e-13 0)
(-6.4052e-14 -1.17226e-13 0)
(9.92868e-15 -7.09702e-14 0)
(3.84581e-14 -3.13738e-14 0)
(8.27804e-14 -4.00018e-14 0)
(3.19401e-14 -2.96712e-14 0)
(-6.12634e-14 -9.49779e-15 0)
(2.87841e-16 -6.21329e-14 0)
(8.124e-14 -6.76665e-14 0)
(2.93855e-14 -6.47614e-14 0)
(7.45763e-15 -7.54644e-14 0)
(9.32312e-15 -6.66732e-14 0)
(-2.12338e-15 -1.0538e-13 0)
(-4.46106e-15 -8.21601e-15 0)
(-7.29758e-14 1.82858e-14 0)
(-8.99303e-14 -1.0393e-13 0)
(4.81793e-15 -4.30683e-14 0)
(5.78977e-14 1.23874e-14 0)
(-2.99803e-15 1.31906e-14 0)
(-5.82985e-14 -1.07896e-14 0)
(5.59848e-14 -7.38363e-14 0)
(1.0652e-13 -5.80756e-14 0)
(3.35686e-14 -9.1139e-14 0)
(-9.78557e-15 -3.58428e-14 0)
(-4.72102e-14 -6.93535e-14 0)
(-7.65515e-14 -4.20336e-14 0)
(-1.17066e-13 -8.26007e-14 0)
(-6.5989e-14 -3.23799e-14 0)
(4.72409e-14 -6.99323e-14 0)
(8.97518e-15 -8.49165e-15 0)
(-6.06496e-14 5.30909e-15 0)
(-6.32393e-14 -4.06542e-14 0)
(-5.88737e-14 -3.9497e-14 0)
(-1.09568e-14 -1.48476e-14 0)
(-1.02531e-14 -6.27767e-14 0)
(1.20252e-14 -1.61937e-14 0)
(8.53992e-14 1.97403e-14 0)
(1.5042e-13 -3.23327e-14 0)
(1.32541e-13 -2.32288e-14 0)
(7.53211e-14 -5.2461e-14 0)
(5.8935e-14 1.89708e-14 0)
(2.9524e-14 -5.01167e-14 0)
(-8.33492e-14 -2.44338e-14 0)
(-1.69552e-13 -8.51972e-14 0)
(-1.52069e-13 -5.5231e-14 0)
(-3.01634e-14 -7.3284e-14 0)
(-4.9979e-14 -6.16788e-14 0)
(-1.91381e-14 -1.05413e-13 0)
(3.59972e-14 -6.87349e-14 0)
(-2.87478e-14 -3.82607e-14 0)
(-5.47269e-14 2.92271e-14 0)
(-4.92615e-14 -7.25591e-15 0)
(-5.75877e-14 2.08428e-14 0)
(5.94174e-14 2.92546e-14 0)
(1.14714e-13 -4.89288e-14 0)
(-4.10635e-15 -1.21452e-13 0)
(-4.41351e-14 -6.49008e-14 0)
(-9.58322e-14 -1.0138e-13 0)
(-7.78441e-14 -8.28968e-14 0)
(-1.39165e-13 -1.17701e-13 0)
(-1.11483e-13 -5.42509e-14 0)
(-1.00566e-14 -1.49497e-13 0)
(-4.02635e-15 -1.66461e-13 0)
(-3.90776e-14 -1.44123e-13 0)
(-1.98634e-14 -1.26586e-13 0)
(3.575e-14 -1.15897e-13 0)
(8.81444e-14 -7.97681e-14 0)
(3.03484e-14 -9.15588e-15 0)
(1.12759e-16 3.40731e-14 0)
(7.71905e-14 3.7399e-14 0)
(2.26072e-13 5.49127e-14 0)
(2.92572e-13 6.53784e-14 0)
(1.6725e-13 2.05204e-14 0)
(-1.06632e-14 2.43052e-14 0)
(-9.25828e-14 4.04317e-14 0)
(-6.26954e-14 3.95094e-14 0)
(-9.77325e-14 -1.13485e-15 0)
(-1.0834e-13 -9.35334e-15 0)
(-8.85968e-14 -1.09198e-13 0)
(-1.83417e-14 -7.23786e-14 0)
(4.24354e-14 -1.45537e-15 0)
(-1.27516e-14 -1.70113e-14 0)
(-1.90012e-14 -4.8527e-14 0)
(-7.43582e-14 -4.43251e-14 0)
(-2.95567e-14 -1.15735e-13 0)
(3.12217e-14 -1.07983e-13 0)
(-2.84273e-14 -1.35978e-13 0)
(-1.72946e-14 -6.59877e-14 0)
(4.00698e-14 2.34168e-14 0)
(9.37481e-14 -1.21435e-14 0)
(4.80667e-14 -6.56984e-14 0)
(-4.63447e-14 -1.65491e-14 0)
(2.45425e-15 1.3315e-14 0)
(5.54955e-14 -2.20332e-14 0)
(-7.97894e-14 5.79419e-14 0)
(-1.79618e-13 6.39228e-14 0)
(-1.17767e-13 6.89096e-14 0)
(8.11454e-14 3.20943e-14 0)
(1.87616e-13 -1.41461e-14 0)
(6.97084e-14 -2.40771e-14 0)
(2.68312e-14 -2.58464e-14 0)
(-2.74476e-14 -5.32775e-14 0)
(-1.02007e-13 7.79048e-15 0)
(-1.56978e-13 -5.81571e-14 0)
(-2.31275e-13 -9.80045e-14 0)
(-7.74043e-14 -1.70642e-14 0)
(6.72072e-14 1.5856e-14 0)
(2.966e-14 -3.50514e-14 0)
(-8.8725e-14 2.16859e-14 0)
(-1.40937e-14 -5.34586e-14 0)
(4.88925e-14 -2.21058e-15 0)
(-4.01019e-15 -1.86616e-14 0)
(-7.31509e-15 -9.91336e-15 0)
(5.18559e-14 -7.49859e-14 0)
(9.67934e-14 -1.52211e-13 0)
(8.23335e-15 -1.8839e-13 0)
(-3.44886e-14 -1.15557e-13 0)
(2.12885e-14 -5.46739e-14 0)
(8.43676e-14 -4.7219e-14 0)
(1.96157e-14 -2.37688e-14 0)
(-5.55611e-14 -2.88108e-14 0)
(1.0084e-14 -6.66647e-14 0)
(6.75849e-14 -5.53778e-14 0)
(7.53016e-14 -8.5809e-14 0)
(1.67969e-14 -1.27658e-13 0)
(3.29725e-14 -7.92253e-14 0)
(-1.68386e-14 -1.16352e-13 0)
(1.50112e-14 -1.56252e-13 0)
(6.30339e-14 -1.26018e-13 0)
(-9.48712e-15 -8.38132e-14 0)
(-3.47141e-14 -8.80231e-14 0)
(6.57218e-14 -1.07281e-13 0)
(-3.12322e-14 -1.3942e-13 0)
(-9.63412e-14 -1.14092e-13 0)
(2.48654e-14 -1.43744e-13 0)
(7.25712e-14 -9.43979e-14 0)
(-8.36765e-14 -1.30189e-13 0)
(-7.14855e-14 -1.03608e-13 0)
(-7.00439e-15 -1.41106e-13 0)
(3.8283e-14 -1.8841e-13 0)
(-5.87355e-15 -1.98211e-13 0)
(-4.4542e-14 -1.00394e-13 0)
(1.68824e-14 -5.74338e-14 0)
(8.55957e-14 -7.82432e-14 0)
(4.26103e-14 -3.62222e-14 0)
(-5.10627e-15 1.47392e-14 0)
(2.75709e-14 4.94776e-14 0)
(6.38886e-14 -1.35038e-14 0)
(1.76616e-14 2.08593e-14 0)
(-5.22561e-14 -3.68918e-14 0)
(6.83173e-14 1.09253e-13 0)
(4.28857e-14 3.97337e-14 0)
(6.10756e-14 -4.50701e-14 0)
(-2.94246e-14 -7.40494e-14 0)
(1.10534e-14 -2.43752e-14 0)
(1.08105e-14 1.45492e-14 0)
(-9.12469e-15 -1.5109e-14 0)
(2.06439e-14 -1.20902e-13 0)
(5.15793e-14 -7.73907e-14 0)
(1.4315e-14 -1.04557e-14 0)
(2.60745e-14 -5.15087e-14 0)
(1.05925e-13 -1.55793e-14 0)
(3.7812e-15 -7.893e-14 0)
(-1.54054e-13 -6.74937e-14 0)
(-1.38634e-13 -5.24329e-14 0)
(-9.07501e-14 -8.53273e-14 0)
(3.19069e-15 -4.38073e-14 0)
(1.01118e-13 -6.16377e-14 0)
(2.92589e-14 -9.13341e-15 0)
(1.55732e-14 3.48629e-14 0)
(2.95736e-14 -1.08675e-14 0)
(5.75359e-14 4.92224e-14 0)
(6.34277e-14 7.92168e-15 0)
(-4.09465e-14 8.23474e-14 0)
(-7.5146e-14 4.45333e-14 0)
(4.19646e-14 -3.07314e-15 0)
(1.05209e-13 -4.08852e-14 0)
(3.31609e-14 -4.45632e-14 0)
(-3.25719e-14 5.31867e-15 0)
(4.4681e-14 4.86722e-14 0)
(6.54356e-14 8.54016e-14 0)
(-1.23841e-13 5.06204e-14 0)
(-1.2708e-13 4.33121e-14 0)
(1.60369e-14 6.80578e-14 0)
(6.78241e-14 8.07052e-15 0)
(-7.94724e-15 -1.90841e-14 0)
(-8.86375e-14 -5.03942e-14 0)
(2.56574e-14 -8.25773e-14 0)
(6.02677e-14 -1.41946e-13 0)
(4.60803e-14 -1.21809e-13 0)
(-5.07067e-15 -8.75766e-14 0)
(-6.75453e-14 -6.45926e-14 0)
(-3.32101e-14 -7.54955e-14 0)
(-6.73405e-14 -9.22566e-14 0)
(-4.29177e-14 -4.02706e-14 0)
(1.08342e-15 -2.22258e-14 0)
(-6.23513e-15 -1.21885e-13 0)
(-8.01559e-14 -1.36926e-13 0)
(-6.25735e-14 -9.02987e-14 0)
(-3.20133e-15 -6.2726e-14 0)
(2.50721e-15 -1.88042e-14 0)
(6.69545e-15 -1.19067e-14 0)
(6.74821e-14 1.49953e-14 0)
(8.32277e-14 2.54356e-14 0)
(5.48775e-14 -3.21214e-14 0)
(1.19461e-13 -8.83112e-14 0)
(1.23738e-13 -1.15679e-13 0)
(8.42872e-14 -2.93408e-14 0)
(3.97094e-14 -8.35842e-14 0)
(-1.23134e-13 -1.05037e-13 0)
(-1.07816e-13 -1.09199e-13 0)
(-1.18127e-13 -5.00988e-14 0)
(-1.23343e-13 -2.06811e-14 0)
(-7.69078e-14 -7.03881e-14 0)
(1.26823e-14 -1.47289e-13 0)
(8.30793e-14 -1.33049e-13 0)
(4.64443e-14 -7.25451e-14 0)
(-1.48465e-14 7.7842e-15 0)
(-6.1355e-14 -2.58401e-15 0)
(-3.75108e-14 -5.02648e-14 0)
(2.90403e-15 -2.97899e-14 0)
(-1.6902e-14 -1.63187e-13 0)
(-1.98751e-14 -1.77812e-13 0)
(-5.13168e-14 -1.55523e-13 0)
(-6.62564e-14 -1.64596e-13 0)
(-2.83279e-14 -8.90323e-14 0)
(-4.60222e-14 -7.76174e-14 0)
(-1.2376e-13 -3.92113e-14 0)
(-1.02927e-13 -5.11216e-14 0)
(-5.53725e-14 -1.16968e-13 0)
(1.00183e-14 -1.02656e-13 0)
(5.00614e-14 -1.76298e-14 0)
(3.05452e-14 -7.5535e-15 0)
(1.14973e-13 -9.32901e-14 0)
(6.33701e-14 -3.65449e-14 0)
(7.18821e-14 -5.05397e-15 0)
(1.34443e-13 1.16454e-13 0)
(1.43593e-13 8.43073e-14 0)
(1.80784e-13 -3.65526e-14 0)
(1.22916e-13 -3.46191e-15 0)
(2.92053e-14 -2.19974e-14 0)
(-6.22751e-14 3.31239e-14 0)
(-9.66943e-14 -2.48898e-14 0)
(-6.84448e-14 -2.86622e-14 0)
(-1.37658e-13 -3.33769e-14 0)
(-1.33844e-13 -4.96398e-14 0)
(-1.44328e-14 -4.16795e-14 0)
(5.01353e-14 -2.28738e-14 0)
(1.69807e-14 -9.20322e-14 0)
(-2.73256e-14 -7.47736e-14 0)
(-5.68903e-14 -6.05769e-14 0)
(-6.69034e-14 -1.03046e-13 0)
(-3.03778e-14 -2.20081e-13 0)
(-8.06372e-15 -1.67145e-13 0)
(4.23476e-14 -1.33114e-13 0)
(6.46728e-14 -1.21918e-13 0)
(9.96515e-14 -1.05093e-13 0)
(7.62912e-14 -9.77837e-14 0)
(2.29524e-14 -8.10595e-14 0)
(-9.46596e-15 -3.59703e-14 0)
(2.71771e-14 -6.86918e-15 0)
(-4.97317e-14 1.92741e-14 0)
(-1.76353e-13 5.38342e-14 0)
(-1.33732e-13 1.00306e-13 0)
(-1.89697e-14 2.05499e-14 0)
(1.39859e-13 -7.96477e-15 0)
(1.33437e-13 -4.7929e-14 0)
(1.99803e-14 5.16945e-14 0)
(-4.36268e-14 -7.45445e-14 0)
(-1.36393e-13 -1.02848e-13 0)
(-2.18058e-13 -6.25459e-14 0)
(-1.27704e-13 -9.04894e-14 0)
(-1.8174e-14 -1.48967e-14 0)
(3.67731e-14 3.46757e-14 0)
(-1.20916e-14 -4.19796e-14 0)
(-4.2524e-14 -1.71151e-14 0)
(-6.68966e-14 -3.10384e-14 0)
(7.09401e-15 -9.75673e-14 0)
(1.87022e-14 -5.05856e-14 0)
(-1.89866e-14 -7.33652e-15 0)
(-3.56337e-14 -1.0047e-13 0)
(3.62057e-14 -1.32273e-13 0)
(9.40099e-14 -1.56591e-13 0)
(7.63342e-14 -6.91754e-14 0)
(-2.67221e-14 -1.12622e-13 0)
(4.73984e-14 -1.24624e-13 0)
(5.9809e-14 -7.00932e-14 0)
(-4.83823e-14 -1.04759e-13 0)
(1.61916e-17 -1.98838e-14 0)
(5.1957e-14 -1.71467e-16 0)
(8.28448e-15 -5.47254e-14 0)
(2.80531e-14 -8.47359e-14 0)
(5.38012e-14 -1.36243e-13 0)
(2.21122e-15 -1.38278e-13 0)
(1.97945e-14 -8.9737e-14 0)
(-1.39597e-14 -1.32137e-13 0)
(-4.643e-14 -2.5638e-13 0)
(-2.23129e-14 -2.02542e-13 0)
(2.95741e-14 -1.73426e-13 0)
(2.86353e-14 -2.18803e-13 0)
(-1.4927e-14 -1.55751e-13 0)
(2.67394e-14 -7.61538e-14 0)
(2.28854e-14 -1.35703e-13 0)
(-9.18886e-14 -1.44234e-13 0)
(-9.03067e-14 -1.09147e-13 0)
(-5.25498e-14 -1.76383e-13 0)
(-2.36116e-14 -1.49032e-13 0)
(9.7164e-14 -1.7453e-13 0)
(7.00357e-14 -6.5701e-14 0)
(-2.75185e-14 -9.50997e-14 0)
(3.89653e-14 -1.16389e-13 0)
(9.77612e-14 -1.49032e-13 0)
(3.61312e-14 -6.3772e-14 0)
(3.79187e-15 1.04175e-14 0)
(4.557e-14 -2.89399e-14 0)
(-3.06987e-15 -9.96073e-14 0)
(-6.17094e-14 -7.14539e-14 0)
(1.25682e-13 6.11482e-14 0)
(-4.26367e-14 1.99111e-14 0)
(-2.13336e-15 -2.18942e-14 0)