/*--------------------------------*- C++ -*----------------------------------*\
  =========                 |
  \\      /  F ield         | OpenFOAM: The Open Source CFD Toolbox
   \\    /   O peration     | Website:  https://openfoam.org
    \\  /    A nd           | Version:  13
     \\/     M anipulation  |
\*---------------------------------------------------------------------------*/
FoamFile
{
    format      ascii;
    class       volVectorField;
    location    "0.0018";
    object      U;
}
// * * * * * * * * * * * * * * * * * * * * * * * * * * * * * * * * * * * * * //

dimensions      [0 1 -1 0 0 0 0];

internalField   nonuniform List<vector> 
33334
(
(203.899 -0.00153373 0)
(203.621 -0.00154154 0)
(203.348 -0.00154533 0)
(203.079 -0.00153939 0)
(202.813 -0.00152373 0)
(202.552 -0.00150428 0)
(202.296 -0.00148304 0)
(202.044 -0.00146149 0)
(201.795 -0.00143917 0)
(201.549 -0.00141405 0)
(201.304 -0.00138497 0)
(201.064 -0.00135119 0)
(200.828 -0.00131331 0)
(200.6 -0.00127396 0)
(200.38 -0.00123832 0)
(200.158 -0.00121214 0)
(199.868 -0.00118744 0)
(199.26 -0.00114585 0)
(197.399 -0.00108466 0)
(190.755 -0.00100685 0)
(167.563 -0.000874235 0)
(105.531 -0.000580287 0)
(26.8647 -0.000203002 0)
(1.42351 -2.43413e-05 0)
(0.0109373 -7.112e-07 0)
(9.00746e-06 -3.5395e-09 0)
(1.13499e-09 -1.7942e-12 0)
(2.2426e-13 1.05252e-13 0)
(-3.25968e-13 2.00658e-13 0)
(-5.22347e-13 2.78082e-13 0)
(-3.56154e-13 3.34345e-13 0)
(-2.70272e-13 4.10748e-13 0)
(-3.41604e-13 5.39509e-13 0)
(-4.52722e-13 5.25002e-13 0)
(-4.47367e-13 3.86374e-13 0)
(-3.61035e-13 3.33316e-13 0)
(-1.69251e-13 3.35933e-13 0)
(-7.95618e-14 3.61014e-13 0)
(-1.70257e-13 3.91432e-13 0)
(-1.23147e-13 4.05151e-13 0)
(-1.84951e-14 3.13118e-13 0)
(4.8828e-14 4.24203e-13 0)
(7.84683e-15 3.79146e-13 0)
(-9.02972e-14 3.299e-13 0)
(-1.04264e-13 4.5801e-13 0)
(-1.40479e-14 4.74656e-13 0)
(3.49416e-15 3.39854e-13 0)
(7.44437e-14 2.77171e-13 0)
(-6.90861e-14 1.75874e-13 0)
(-2.53868e-13 3.0079e-13 0)
(-1.81437e-13 2.80331e-13 0)
(1.8399e-14 2.0567e-13 0)
(4.04349e-13 2.4327e-13 0)
(6.52694e-13 1.62331e-13 0)
(3.76992e-13 1.40386e-13 0)
(3.93507e-14 1.50108e-13 0)
(-2.69995e-13 9.88579e-14 0)
(-4.85366e-13 2.89404e-13 0)
(-3.26816e-13 2.6843e-13 0)
(3.61426e-14 2.87497e-13 0)
(1.17453e-13 1.9814e-13 0)
(9.03956e-14 2.70922e-13 0)
(2.79757e-13 3.19219e-13 0)
(-2.90203e-14 2.64348e-13 0)
(-2.60996e-13 1.87594e-13 0)
(-4.62708e-13 1.46106e-13 0)
(-6.96448e-13 3.09057e-13 0)
(-6.53657e-13 2.76176e-13 0)
(-6.8921e-13 2.96483e-13 0)
(-5.07589e-13 3.42507e-13 0)
(-3.37951e-13 3.16902e-13 0)
(-3.69865e-13 3.2123e-13 0)
(-3.0757e-13 2.73005e-13 0)
(-3.17597e-13 2.73936e-13 0)
(-3.67484e-13 3.60105e-13 0)
(-1.44185e-13 3.1445e-13 0)
(3.20476e-15 3.34309e-13 0)
(1.94845e-13 3.74628e-13 0)
(3.81401e-14 2.94176e-13 0)
(-3.36501e-13 2.69514e-13 0)
(-2.43229e-13 3.32537e-13 0)
(-2.26379e-13 5.1984e-13 0)
(-1.56662e-13 4.81475e-13 0)
(-1.4359e-13 3.86996e-13 0)
(4.3444e-14 3.41231e-13 0)
(1.07855e-14 2.79716e-13 0)
(-1.71422e-13 4.35741e-13 0)
(-1.83701e-13 3.74509e-13 0)
(1.15871e-13 2.26895e-13 0)
(9.14309e-14 1.31378e-13 0)
(1.94399e-14 1.71354e-13 0)
(1.3986e-13 2.81579e-13 0)
(1.19869e-13 3.22304e-13 0)
(7.37514e-14 2.5625e-13 0)
(-3.43604e-14 3.86098e-13 0)
(-2.4921e-14 4.38266e-13 0)
(-7.61514e-15 4.29291e-13 0)
(4.37585e-14 2.72172e-13 0)
(2.61563e-13 2.278e-13 0)
(5.21292e-14 2.24346e-13 0)
(-2.13903e-13 3.00113e-13 0)
(-9.74691e-14 3.76364e-13 0)
(7.9209e-14 2.09339e-13 0)
(1.75361e-13 1.74381e-13 0)
(-3.84551e-14 1.897e-13 0)
(2.80661e-15 2.56105e-13 0)
(2.19257e-13 1.02498e-13 0)
(6.01659e-14 3.03365e-14 0)
(-6.16437e-14 1.56425e-14 0)
(9.6686e-14 1.90948e-14 0)
(2.45823e-13 2.07223e-13 0)
(4.22179e-13 1.14531e-13 0)
(1.60008e-13 1.37849e-13 0)
(-1.77523e-13 3.91356e-13 0)
(-1.17448e-13 3.73249e-13 0)
(-1.57674e-13 4.44958e-13 0)
(-1.5134e-13 3.75366e-13 0)
(-1.14482e-13 3.16552e-13 0)
(-3.41597e-14 3.10212e-13 0)
(5.22809e-14 3.22506e-13 0)
(9.82373e-14 3.65382e-13 0)
(9.57907e-14 4.11894e-13 0)
(5.67343e-14 2.83246e-13 0)
(1.01436e-13 3.15773e-13 0)
(7.96584e-14 2.8118e-13 0)
(4.5417e-14 3.19894e-13 0)
(1.65912e-13 2.1827e-13 0)
(1.86984e-13 1.1025e-13 0)
(-1.0627e-13 3.14708e-14 0)
(-2.37854e-13 2.65796e-13 0)
(-3.36498e-13 2.60389e-14 0)
(-3.92342e-13 2.62653e-13 0)
(-2.79526e-13 2.61474e-13 0)
(-3.30158e-13 2.65053e-13 0)
(-1.24366e-13 3.17078e-13 0)
(-1.86575e-14 2.87526e-13 0)
(-1.56349e-13 2.71223e-13 0)
(-1.95712e-13 2.9445e-13 0)
(-1.84864e-13 3.78124e-13 0)
(-1.47911e-13 4.49677e-13 0)
(-1.20188e-14 5.51646e-13 0)
(2.1038e-15 5.17042e-13 0)
(-2.534e-14 4.34761e-13 0)
(-1.00258e-13 2.51696e-13 0)
(-2.34707e-14 2.59599e-13 0)
(1.55401e-13 2.40434e-13 0)
(7.18302e-14 1.91104e-13 0)
(9.60199e-14 1.37481e-13 0)
(3.56023e-13 2.12889e-13 0)
(1.02867e-13 1.23343e-13 0)
(-5.98232e-14 2.67875e-13 0)
(7.53014e-14 3.29571e-13 0)
(3.7324e-13 2.45068e-13 0)
(3.36581e-13 1.94129e-13 0)
(1.15811e-13 3.79585e-13 0)
(-4.15034e-15 3.58789e-13 0)
(-2.07035e-14 3.58338e-13 0)
(-2.46871e-13 2.72874e-13 0)
(-4.37351e-13 1.64937e-13 0)
(-1.99119e-13 1.75155e-13 0)
(-1.21648e-13 1.91931e-13 0)
(3.19149e-14 1.26953e-13 0)
(-4.83424e-14 2.11999e-14 0)
(-1.57843e-13 1.45857e-13 0)
(-7.96315e-14 1.63609e-13 0)
(-1.87452e-14 3.41098e-13 0)
(1.11989e-13 3.08918e-13 0)
(203.938 -0.00159443 0)
(203.658 -0.0015877 0)
(203.383 -0.00157106 0)
(203.112 -0.00154614 0)
(202.845 -0.00153798 0)
(202.582 -0.00153377 0)
(202.323 -0.00153132 0)
(202.07 -0.00152934 0)
(201.819 -0.00152652 0)
(201.571 -0.00152156 0)
(201.325 -0.00151343 0)
(201.083 -0.00150163 0)
(200.845 -0.00149009 0)
(200.616 -0.00148281 0)
(200.394 -0.00148543 0)
(200.17 -0.00152022 0)
(199.878 -0.00157049 0)
(199.268 -0.00159849 0)
(197.405 -0.00160177 0)
(190.759 -0.00158182 0)
(167.566 -0.00145912 0)
(105.532 -0.000922944 0)
(26.8653 -0.000230914 0)
(1.42356 -1.18684e-05 0)
(0.0109377 -9.05571e-08 0)
(9.00789e-06 -8.16915e-11 0)
(1.1349e-09 4.51201e-13 0)
(1.17868e-13 4.32169e-13 0)
(-2.27212e-13 4.0717e-13 0)
(-3.33204e-13 6.04731e-13 0)
(-2.12514e-13 6.26192e-13 0)
(-9.54517e-14 6.73291e-13 0)
(-2.44668e-13 8.54355e-13 0)
(-5.77327e-13 8.52232e-13 0)
(-5.06847e-13 7.47877e-13 0)
(-3.47885e-13 6.93778e-13 0)
(-1.63775e-13 6.51252e-13 0)
(2.06251e-14 7.2008e-13 0)
(-1.4436e-15 6.57939e-13 0)
(-1.38891e-13 6.49715e-13 0)
(-8.77093e-14 7.41945e-13 0)
(-4.01656e-14 6.96741e-13 0)
(-1.0876e-13 5.6891e-13 0)
(-7.03906e-14 6.00049e-13 0)
(-4.92325e-14 5.20719e-13 0)
(2.19304e-14 6.70453e-13 0)
(-1.54964e-14 7.54023e-13 0)
(-2.53791e-14 6.73366e-13 0)
(-1.59897e-13 5.75509e-13 0)
(-2.59427e-13 5.59953e-13 0)
(-1.80418e-13 4.04869e-13 0)
(-9.78473e-15 4.64439e-13 0)
(3.22726e-13 3.30413e-13 0)
(7.06317e-13 3.2164e-13 0)
(5.33088e-13 3.41811e-13 0)
(1.76667e-14 4.60351e-13 0)
(-3.29941e-13 4.32274e-13 0)
(-4.1714e-13 5.74447e-13 0)
(-3.59023e-13 6.6033e-13 0)
(-1.20558e-13 3.9598e-13 0)
(5.10002e-14 2.4042e-13 0)
(1.59887e-13 4.56808e-13 0)
(3.6512e-13 6.13944e-13 0)
(2.70073e-14 5.80454e-13 0)
(-3.66266e-13 6.94059e-13 0)
(-5.3177e-13 6.01456e-13 0)
(-6.50289e-13 6.95818e-13 0)
(-5.73731e-13 5.5118e-13 0)
(-5.64435e-13 7.44581e-13 0)
(-5.31645e-13 6.5808e-13 0)
(-3.43003e-13 5.95292e-13 0)
(-3.70943e-13 6.4009e-13 0)
(-4.25781e-13 6.07887e-13 0)
(-3.51674e-13 5.94485e-13 0)
(-3.11405e-13 8.1086e-13 0)
(-1.46492e-13 6.93394e-13 0)
(-4.96318e-14 7.47351e-13 0)
(-7.89896e-15 4.59605e-13 0)
(-6.22415e-14 2.284e-13 0)
(-1.46622e-13 3.28245e-13 0)
(-4.04032e-14 4.99388e-13 0)
(-1.64838e-13 5.74068e-13 0)
(-2.62174e-13 6.13815e-13 0)
(-2.36668e-13 6.75568e-13 0)
(-9.01035e-15 6.31069e-13 0)
(1.05893e-13 5.08477e-13 0)
(-1.33641e-13 4.92457e-13 0)
(-2.28568e-13 5.67616e-13 0)
(9.63493e-14 5.52003e-13 0)
(8.22227e-14 4.5856e-13 0)
(6.90959e-14 5.76824e-13 0)
(1.98254e-13 6.99455e-13 0)
(1.12355e-13 6.24866e-13 0)
(6.77954e-14 6.66529e-13 0)
(3.99305e-14 5.47278e-13 0)
(9.54164e-14 7.64633e-13 0)
(-4.21838e-14 6.64354e-13 0)
(-1.8179e-13 6.66499e-13 0)
(7.60343e-14 5.94521e-13 0)
(4.81359e-14 4.46942e-13 0)
(1.24856e-14 4.52558e-13 0)
(1.74095e-14 5.03404e-13 0)
(7.96156e-14 4.8839e-13 0)
(1.44145e-13 4.13968e-13 0)
(-4.37528e-14 2.50749e-13 0)
(-1.40467e-13 2.52192e-13 0)
(-3.23657e-14 1.38105e-13 0)
(3.39976e-14 1.38933e-13 0)
(3.75954e-14 1.92451e-13 0)
(3.9604e-13 2.23909e-13 0)
(3.16231e-13 4.09029e-13 0)
(2.88338e-13 2.34196e-13 0)
(2.82174e-13 2.42914e-13 0)
(-3.29647e-14 2.88896e-13 0)
(-8.74299e-14 2.98236e-13 0)
(-1.52579e-13 3.70953e-13 0)
(-1.9199e-13 6.9034e-13 0)
(-1.05121e-14 6.53565e-13 0)
(-1.60044e-14 8.30523e-13 0)
(1.46814e-14 7.59436e-13 0)
(2.31073e-13 8.51866e-13 0)
(9.54873e-14 1.00324e-12 0)
(-4.39258e-14 9.0992e-13 0)
(-1.40246e-15 6.66792e-13 0)
(1.00291e-14 5.94718e-13 0)
(8.47332e-14 4.68848e-13 0)
(1.29133e-13 4.44531e-13 0)
(1.08267e-13 2.26613e-13 0)
(1.92979e-14 3.53054e-13 0)
(-3.97043e-13 2.67148e-13 0)
(-4.88532e-13 1.76666e-13 0)
(-3.54828e-13 2.53033e-13 0)
(-3.90994e-13 1.89357e-13 0)
(-2.54147e-13 2.8734e-13 0)
(3.24294e-14 3.63393e-13 0)
(-7.18542e-14 5.8255e-13 0)
(-1.81598e-13 4.58038e-13 0)
(-1.81024e-13 6.06867e-13 0)
(-1.95782e-13 3.38537e-13 0)
(-1.87699e-14 4.69987e-13 0)
(8.7145e-14 5.60683e-13 0)
(-2.00988e-14 7.41305e-13 0)
(-1.03458e-13 6.11989e-13 0)
(-1.73467e-13 7.58982e-13 0)
(-9.79928e-14 7.66647e-13 0)
(1.39959e-13 8.12093e-13 0)
(1.12466e-13 8.44639e-13 0)
(1.00303e-13 6.87282e-13 0)
(2.19779e-13 4.95569e-13 0)
(1.19974e-13 4.62157e-13 0)
(1.90988e-13 5.27541e-13 0)
(1.81738e-13 6.27424e-13 0)
(2.97615e-13 5.312e-13 0)
(3.90517e-13 4.5091e-13 0)
(1.33885e-13 2.80645e-13 0)
(-6.58057e-14 2.50745e-13 0)
(-1.46892e-13 2.23801e-13 0)
(-3.55565e-13 1.58368e-13 0)
(-4.31841e-13 2.42342e-13 0)
(-3.20728e-14 2.71457e-13 0)
(-4.40429e-14 4.22524e-13 0)
(-5.81784e-14 3.12636e-13 0)
(1.90958e-14 3.11453e-13 0)
(-3.33272e-14 3.20336e-13 0)
(5.05875e-14 4.4146e-13 0)
(4.75838e-14 5.57902e-13 0)
(2.62543e-14 7.93869e-13 0)
(203.937 -0.00153748 0)
(203.657 -0.0015246 0)
(203.382 -0.00151 0)
(203.111 -0.00150001 0)
(202.844 -0.00148405 0)
(202.581 -0.00147383 0)
(202.323 -0.00146839 0)
(202.069 -0.00146541 0)
(201.819 -0.00146206 0)
(201.57 -0.00145662 0)
(201.325 -0.00144861 0)
(201.082 -0.00143796 0)
(200.845 -0.00142999 0)
(200.615 -0.00143106 0)
(200.393 -0.00144217 0)
(200.169 -0.00146984 0)
(199.878 -0.00150372 0)
(199.268 -0.00153269 0)
(197.405 -0.00153375 0)
(190.759 -0.00144777 0)
(167.566 -0.00117154 0)
(105.533 -0.000714046 0)
(26.8656 -0.000188776 0)
(1.42359 -1.08885e-05 0)
(0.0109382 -9.35643e-08 0)
(9.00842e-06 -8.36664e-11 0)
(1.13485e-09 7.71021e-13 0)
(1.39252e-13 7.08536e-13 0)
(-1.49001e-13 7.20194e-13 0)
(-2.49924e-13 7.5436e-13 0)
(-2.56684e-13 9.22876e-13 0)
(-9.25172e-14 9.59275e-13 0)
(-2.42566e-13 8.07947e-13 0)
(-5.84775e-13 7.97317e-13 0)
(-5.88212e-13 7.26708e-13 0)
(-3.30469e-13 6.67447e-13 0)
(-3.05969e-14 6.8319e-13 0)
(-5.13988e-14 8.00721e-13 0)
(-1.9684e-13 5.96052e-13 0)
(-6.96768e-14 5.01889e-13 0)
(-1.86839e-14 5.24086e-13 0)
(-1.32614e-13 3.46801e-13 0)
(-9.77922e-14 4.49615e-13 0)
(-1.29353e-13 4.34016e-13 0)
(-1.56076e-14 4.3446e-13 0)
(1.48916e-13 5.75571e-13 0)
(-2.05075e-14 4.58261e-13 0)
(-9.36671e-14 4.20219e-13 0)
(-1.67122e-13 2.97301e-13 0)
(-3.63054e-13 2.44909e-13 0)
(-2.68641e-13 3.10409e-13 0)
(2.65408e-14 3.74578e-13 0)
(3.55924e-13 3.72803e-13 0)
(5.99032e-13 4.57339e-13 0)
(4.96424e-13 8.77933e-14 0)
(1.55477e-13 5.95508e-14 0)
(-1.53761e-13 2.95448e-13 0)
(-2.93421e-13 4.80805e-13 0)
(-4.13544e-13 6.37881e-13 0)
(-3.42645e-13 4.6853e-13 0)
(1.01778e-13 4.19453e-13 0)
(2.65167e-13 7.26801e-13 0)
(3.22284e-13 5.4649e-13 0)
(2.42847e-14 3.47223e-13 0)
(-2.64064e-13 4.80979e-13 0)
(-4.82757e-13 4.65712e-13 0)
(-7.48209e-13 6.25195e-13 0)
(-5.51412e-13 5.48382e-13 0)
(-4.98025e-13 4.94074e-13 0)
(-5.54686e-13 6.47546e-13 0)
(-3.17671e-13 7.99314e-13 0)
(-4.35936e-13 6.34852e-13 0)
(-4.87988e-13 6.02989e-13 0)
(-2.27567e-13 5.51255e-13 0)
(-2.70542e-13 5.72146e-13 0)
(-2.25734e-13 6.12523e-13 0)
(-1.74952e-13 5.42701e-13 0)
(-2.34318e-13 5.01065e-13 0)
(-7.62144e-14 4.4891e-13 0)
(-9.21839e-14 4.94477e-13 0)
(-1.31219e-13 5.69146e-13 0)
(-1.81242e-13 5.01167e-13 0)
(-1.30028e-13 5.84751e-13 0)
(-1.25665e-13 5.66952e-13 0)
(-1.1074e-13 6.89097e-13 0)
(-4.59377e-14 5.83775e-13 0)
(-7.50793e-14 4.86826e-13 0)
(-9.223e-14 5.70095e-13 0)
(5.55146e-14 5.18449e-13 0)
(1.0559e-13 3.59578e-13 0)
(1.95855e-13 4.51767e-13 0)
(1.65748e-13 3.88844e-13 0)
(7.82358e-14 3.60147e-13 0)
(1.87677e-14 4.07382e-13 0)
(6.39619e-14 4.9727e-13 0)
(1.12809e-13 6.44603e-13 0)
(-9.95758e-14 8.03041e-13 0)
(-1.58977e-14 8.96284e-13 0)
(4.0466e-14 7.56844e-13 0)
(-5.66514e-14 5.99964e-13 0)
(-7.22436e-14 5.86522e-13 0)
(1.35969e-14 4.13797e-13 0)
(1.21381e-13 3.91568e-13 0)
(-1.60455e-14 2.26111e-13 0)
(-1.91758e-13 2.30503e-13 0)
(-1.55021e-13 3.58168e-13 0)
(3.18125e-14 4.04283e-13 0)
(8.00545e-14 3.365e-13 0)
(1.04768e-13 3.31791e-13 0)
(4.30473e-13 3.43403e-13 0)
(3.20536e-13 1.98223e-13 0)
(2.26282e-13 2.33414e-13 0)
(2.06927e-13 1.3101e-13 0)
(-5.37781e-14 2.29208e-13 0)
(-5.32144e-14 3.36645e-13 0)
(1.18161e-13 3.07613e-13 0)
(6.24885e-14 4.61804e-13 0)
(3.34214e-14 5.95339e-13 0)
(4.06846e-14 6.34209e-13 0)
(7.40847e-14 8.53134e-13 0)
(3.61034e-13 8.88474e-13 0)
(1.56348e-13 9.15499e-13 0)
(-2.26656e-13 9.50599e-13 0)
(-1.15281e-13 1.06597e-12 0)
(-9.83262e-14 8.87653e-13 0)
(-1.4317e-14 7.46438e-13 0)
(1.76094e-14 5.7635e-13 0)
(7.92491e-14 5.70689e-13 0)
(-1.77586e-13 5.54325e-13 0)
(-4.89205e-13 4.45409e-13 0)
(-4.12235e-13 4.80629e-13 0)
(-4.34817e-13 3.03436e-13 0)
(-2.81732e-13 3.10724e-13 0)
(-1.33187e-13 3.94143e-13 0)
(1.26228e-13 4.30689e-13 0)
(-4.80556e-15 4.88867e-13 0)
(-1.72639e-13 4.36679e-13 0)
(-2.7521e-13 5.02638e-13 0)
(-2.97687e-13 5.13543e-13 0)
(2.94475e-14 5.74824e-13 0)
(2.58785e-13 5.36725e-13 0)
(4.28539e-14 6.93048e-13 0)
(-3.78766e-14 5.84426e-13 0)
(4.0107e-14 6.62589e-13 0)
(3.74689e-14 1.02577e-12 0)
(2.82585e-13 1.04784e-12 0)
(2.5747e-14 1.06437e-12 0)
(-2.31506e-13 9.16072e-13 0)
(5.46245e-14 9.43911e-13 0)
(4.89301e-14 9.93085e-13 0)
(7.19187e-14 7.62311e-13 0)
(1.45414e-13 5.76546e-13 0)
(2.21334e-13 5.44114e-13 0)
(1.68579e-13 2.99341e-13 0)
(-7.84265e-14 2.73932e-13 0)
(-7.69521e-14 2.88578e-13 0)
(-1.11547e-13 1.84942e-13 0)
(-2.18424e-13 1.2642e-13 0)
(-2.61725e-13 3.5717e-13 0)
(-9.73925e-15 4.49019e-13 0)
(-4.9218e-14 3.81821e-13 0)
(-3.43044e-14 4.32594e-13 0)
(1.1643e-14 4.28378e-13 0)
(-3.04873e-14 4.8907e-13 0)
(6.36294e-14 4.57105e-13 0)
(2.37856e-13 4.77482e-13 0)
(2.06984e-13 5.97704e-13 0)
(203.937 -0.00151737 0)
(203.657 -0.00150331 0)
(203.382 -0.00149271 0)
(203.111 -0.00148338 0)
(202.844 -0.00147278 0)
(202.581 -0.0014633 0)
(202.323 -0.00145537 0)
(202.069 -0.00144889 0)
(201.819 -0.00144257 0)
(201.57 -0.00143541 0)
(201.324 -0.00142633 0)
(201.082 -0.00141485 0)
(200.844 -0.00140594 0)
(200.615 -0.00140766 0)
(200.393 -0.00142369 0)
(200.169 -0.00145137 0)
(199.878 -0.00147194 0)
(199.267 -0.00147168 0)
(197.405 -0.00144776 0)
(190.759 -0.00138304 0)
(167.566 -0.00118927 0)
(105.533 -0.000735667 0)
(26.866 -0.000191463 0)
(1.42363 -1.0786e-05 0)
(0.0109386 -9.07381e-08 0)
(9.00895e-06 -7.92166e-11 0)
(1.1348e-09 7.73536e-13 0)
(2.61018e-13 8.2816e-13 0)
(-1.83937e-13 9.04525e-13 0)
(-1.36814e-13 7.7205e-13 0)
(-5.34973e-14 9.28064e-13 0)
(-1.96054e-13 9.84751e-13 0)
(-3.53996e-13 8.47903e-13 0)
(-6.34842e-13 8.35265e-13 0)
(-6.17456e-13 7.50325e-13 0)
(-3.03398e-13 7.00568e-13 0)
(4.18376e-14 6.81192e-13 0)
(-8.36182e-14 7.0165e-13 0)
(-2.7132e-13 7.42594e-13 0)
(-1.45277e-13 6.83823e-13 0)
(-1.82932e-13 4.77106e-13 0)
(-1.26794e-13 4.21992e-13 0)
(-5.69126e-14 4.52318e-13 0)
(-1.2756e-13 4.20511e-13 0)
(3.04707e-14 4.48471e-13 0)
(6.56148e-14 4.12493e-13 0)
(-1.45137e-13 2.59891e-13 0)
(-1.75289e-13 2.46697e-13 0)
(-3.0695e-13 2.36248e-13 0)
(-2.33283e-13 3.0485e-13 0)
(1.94521e-15 4.29906e-13 0)
(1.6909e-13 4.75337e-13 0)
(4.17786e-13 4.31317e-13 0)
(3.81648e-13 2.93048e-13 0)
(1.67896e-13 4.41183e-14 0)
(2.99194e-13 1.76642e-14 0)
(1.00991e-13 -8.00351e-15 0)
(-1.09767e-13 2.6699e-13 0)
(-3.15126e-13 3.87404e-13 0)
(-3.09688e-13 5.64562e-13 0)
(2.5533e-13 6.01626e-13 0)
(2.72054e-13 6.53773e-13 0)
(4.71919e-14 5.74364e-13 0)
(-6.80641e-14 4.37706e-13 0)
(-2.53929e-13 5.34072e-13 0)
(-4.19213e-13 4.52668e-13 0)
(-6.17336e-13 5.31947e-13 0)
(-6.41048e-13 5.69934e-13 0)
(-4.32904e-13 5.27533e-13 0)
(-2.81321e-13 6.82022e-13 0)
(-3.1442e-13 8.97048e-13 0)
(-4.77648e-13 8.81938e-13 0)
(-5.02971e-13 9.12101e-13 0)
(-3.54768e-13 7.39717e-13 0)
(-2.24942e-13 6.43939e-13 0)
(-1.71496e-13 7.41969e-13 0)
(-1.51349e-13 7.01458e-13 0)
(-1.85806e-13 8.14744e-13 0)
(-7.95378e-14 9.47183e-13 0)
(-2.52674e-14 8.97664e-13 0)
(-7.79599e-14 9.07707e-13 0)
(-1.41431e-13 8.48201e-13 0)
(-1.8281e-13 9.22339e-13 0)
(-1.17426e-13 7.51168e-13 0)
(7.48958e-15 8.15849e-13 0)
(-1.56143e-13 8.01636e-13 0)
(-1.56005e-13 8.20102e-13 0)
(-1.61839e-13 7.95471e-13 0)
(-8.3213e-14 6.91442e-13 0)
(3.99778e-15 6.60663e-13 0)
(9.3879e-14 5.7193e-13 0)
(1.12862e-13 4.62745e-13 0)
(1.20018e-13 5.19356e-13 0)
(1.60638e-13 5.24432e-13 0)
(1.84294e-13 7.0057e-13 0)
(2.98546e-13 7.20176e-13 0)
(9.02104e-14 8.21038e-13 0)
(-1.43321e-13 9.09143e-13 0)
(-1.24637e-13 7.91006e-13 0)
(-5.98763e-14 6.70049e-13 0)
(-1.05576e-13 6.96149e-13 0)
(-9.83146e-14 7.28975e-13 0)
(-6.78823e-14 6.24354e-13 0)
(-1.00201e-14 5.51079e-13 0)
(4.65031e-14 6.21742e-13 0)
(-5.89235e-14 8.11767e-13 0)
(-1.96452e-13 7.69516e-13 0)
(-7.16589e-14 6.23786e-13 0)
(6.05383e-14 6.38422e-13 0)
(3.11365e-13 6.09787e-13 0)
(1.97927e-13 4.516e-13 0)
(2.06629e-13 5.61013e-13 0)
(2.47417e-13 5.09331e-13 0)
(1.52434e-13 5.7827e-13 0)
(1.17368e-14 6.75405e-13 0)
(3.51255e-14 6.17091e-13 0)
(1.57763e-13 5.81106e-13 0)
(1.38874e-13 7.16696e-13 0)
(2.01725e-13 7.60997e-13 0)
(2.22581e-13 9.70635e-13 0)
(3.26376e-13 8.92226e-13 0)
(1.49849e-13 7.86992e-13 0)
(-4.32768e-14 8.1326e-13 0)
(-1.13826e-13 1.03142e-12 0)
(-2.64092e-13 1.01105e-12 0)
(-9.7498e-14 9.7452e-13 0)
(4.31933e-14 9.60076e-13 0)
(6.43657e-14 9.43399e-13 0)
(-1.67507e-13 7.03112e-13 0)
(-5.01354e-13 8.10746e-13 0)
(-5.65868e-13 8.49517e-13 0)
(-5.17233e-13 7.28101e-13 0)
(-2.90605e-13 7.31092e-13 0)
(-6.03596e-14 6.94586e-13 0)
(1.80487e-13 6.80887e-13 0)
(-2.50888e-14 5.47551e-13 0)
(-1.8764e-13 6.51686e-13 0)
(-1.55699e-13 5.50391e-13 0)
(-1.20472e-13 7.37839e-13 0)
(6.42559e-14 9.03255e-13 0)
(2.30994e-13 7.73324e-13 0)
(6.7857e-14 7.0332e-13 0)
(-1.0686e-13 8.27851e-13 0)
(2.25731e-13 7.75918e-13 0)
(2.587e-13 9.67756e-13 0)
(3.27823e-13 1.12579e-12 0)
(3.54715e-14 1.10724e-12 0)
(-1.69778e-13 1.21493e-12 0)
(1.51325e-13 1.14189e-12 0)
(-1.01163e-13 1.09303e-12 0)
(-1.97118e-13 9.77713e-13 0)
(-3.14527e-14 8.43853e-13 0)
(-2.80035e-14 7.39779e-13 0)
(8.67812e-14 6.16738e-13 0)
(7.37618e-14 6.47999e-13 0)
(-1.64751e-13 6.68084e-13 0)
(-2.96336e-13 5.42623e-13 0)
(-1.1217e-13 5.53982e-13 0)
(-6.15772e-14 6.82194e-13 0)
(4.66572e-14 7.51459e-13 0)
(-7.14043e-14 6.37006e-13 0)
(-3.37024e-14 7.68358e-13 0)
(8.80397e-14 7.80774e-13 0)
(3.37003e-14 8.12168e-13 0)
(3.16665e-14 8.45273e-13 0)
(1.67991e-13 8.69804e-13 0)
(2.73951e-13 7.34043e-13 0)
(203.936 -0.00150979 0)
(203.657 -0.00149512 0)
(203.382 -0.00148128 0)
(203.111 -0.00146831 0)
(202.844 -0.00145754 0)
(202.581 -0.00144879 0)
(202.323 -0.00144191 0)
(202.069 -0.00143617 0)
(201.818 -0.00142991 0)
(201.57 -0.00142226 0)
(201.324 -0.0014133 0)
(201.082 -0.00140575 0)
(200.844 -0.0014048 0)
(200.615 -0.00141209 0)
(200.393 -0.00142067 0)
(200.169 -0.00142481 0)
(199.877 -0.00142359 0)
(199.267 -0.00141697 0)
(197.405 -0.00139904 0)
(190.759 -0.00134338 0)
(167.566 -0.00116906 0)
(105.534 -0.000734619 0)
(26.8664 -0.000193176 0)
(1.42367 -1.09225e-05 0)
(0.0109391 -9.18174e-08 0)
(9.00947e-06 -7.9803e-11 0)
(1.13503e-09 6.76802e-13 0)
(2.45883e-13 8.36576e-13 0)
(-2.72733e-13 7.77926e-13 0)
(-1.93123e-13 6.82851e-13 0)
(-2.89097e-14 5.81858e-13 0)
(-1.61337e-13 6.30952e-13 0)
(-3.60862e-13 7.8408e-13 0)
(-6.63449e-13 7.32008e-13 0)
(-6.69681e-13 7.92715e-13 0)
(-3.4774e-13 9.10624e-13 0)
(-1.96157e-14 8.33312e-13 0)
(1.55841e-14 7.95014e-13 0)
(-2.00041e-13 8.08175e-13 0)
(-3.32291e-13 8.59458e-13 0)
(-2.24497e-13 7.76231e-13 0)
(-1.10747e-13 8.90561e-13 0)
(-9.65228e-14 7.75528e-13 0)
(-1.37122e-13 8.09653e-13 0)
(-5.40429e-14 7.06697e-13 0)
(-8.48245e-14 5.21798e-13 0)
(-1.69718e-13 5.56497e-13 0)
(-7.11637e-14 6.07945e-13 0)
(-1.75569e-13 6.31426e-13 0)
(-1.97017e-13 8.39116e-13 0)
(-5.62403e-15 7.89615e-13 0)
(1.25608e-13 8.63165e-13 0)
(2.25562e-13 6.60612e-13 0)
(1.41062e-13 4.48784e-13 0)
(1.29798e-13 3.77567e-13 0)
(1.87436e-13 3.43128e-13 0)
(8.94209e-14 2.47028e-13 0)
(4.34891e-14 4.82174e-13 0)
(-1.47046e-13 4.0572e-13 0)
(-6.24495e-14 6.50424e-13 0)
(2.30648e-13 8.3879e-13 0)
(2.29796e-13 5.91802e-13 0)
(8.36175e-14 6.69046e-13 0)
(-9.73628e-14 6.22015e-13 0)
(-2.73502e-13 7.53796e-13 0)
(-4.62311e-13 7.72597e-13 0)
(-6.51822e-13 6.94021e-13 0)
(-5.56581e-13 7.6446e-13 0)
(-3.99878e-13 8.98918e-13 0)
(-1.91021e-13 8.33015e-13 0)
(-1.13851e-13 8.84396e-13 0)
(-3.77673e-13 9.56522e-13 0)
(-6.26693e-13 1.14001e-12 0)
(-4.34827e-13 1.09361e-12 0)
(-2.09882e-13 1.17818e-12 0)
(-1.69446e-13 1.10781e-12 0)
(-1.57179e-13 1.21915e-12 0)
(-4.83384e-14 1.21412e-12 0)
(-3.31767e-14 1.31923e-12 0)
(-1.50083e-13 1.2321e-12 0)
(-1.403e-13 1.1696e-12 0)
(-9.91949e-14 1.13271e-12 0)
(-2.12186e-13 1.1716e-12 0)
(-2.2367e-13 1.05259e-12 0)
(-2.57478e-14 9.76882e-13 0)
(-6.86702e-14 1.10702e-12 0)
(-7.30462e-14 1.1607e-12 0)
(-1.87955e-13 1.19778e-12 0)
(-1.24673e-13 1.09382e-12 0)
(7.86626e-15 1.11444e-12 0)
(8.78479e-15 1.02194e-12 0)
(5.96236e-14 1.03967e-12 0)
(1.48598e-13 1.06455e-12 0)
(1.84958e-13 1.14073e-12 0)
(2.47176e-13 1.06539e-12 0)
(1.58212e-13 8.52814e-13 0)
(9.45359e-14 7.23377e-13 0)
(-6.68565e-14 7.1253e-13 0)
(-2.16783e-13 8.46734e-13 0)
(-1.34682e-13 9.12002e-13 0)
(3.01628e-14 9.29364e-13 0)
(-3.81653e-14 1.11651e-12 0)
(-1.27655e-13 1.07977e-12 0)
(-4.81297e-15 1.14941e-12 0)
(1.28554e-13 1.11199e-12 0)
(-3.78297e-15 1.12275e-12 0)
(-1.74397e-13 1.08086e-12 0)
(-9.39852e-14 1.12468e-12 0)
(5.84051e-14 1.05065e-12 0)
(2.26092e-13 9.7795e-13 0)
(2.04201e-13 1.07373e-12 0)
(1.90736e-13 9.89592e-13 0)
(1.45642e-13 1.03722e-12 0)
(1.52461e-13 1.02278e-12 0)
(6.48591e-14 8.64405e-13 0)
(4.8078e-14 9.74736e-13 0)
(1.95105e-13 1.14168e-12 0)
(2.14162e-13 1.12562e-12 0)
(2.62261e-13 1.17573e-12 0)
(1.94987e-13 1.02147e-12 0)
(1.73499e-13 9.72398e-13 0)
(9.90158e-14 8.87893e-13 0)
(4.22962e-14 1.041e-12 0)
(6.73832e-16 1.00234e-12 0)
(-1.32497e-13 1.17783e-12 0)
(-1.18204e-15 1.16622e-12 0)
(4.41817e-14 1.29988e-12 0)
(-2.26679e-13 1.14942e-12 0)
(-2.82828e-13 8.82548e-13 0)
(-3.23221e-13 1.01326e-12 0)
(-5.16599e-13 1.10496e-12 0)
(-5.10902e-13 1.10035e-12 0)
(-3.41479e-13 1.21474e-12 0)
(-2.41952e-13 1.06031e-12 0)
(8.81846e-15 1.00536e-12 0)
(1.82847e-14 9.78913e-13 0)
(-1.42317e-13 9.65461e-13 0)
(-1.91808e-13 9.14356e-13 0)
(5.83772e-14 1.0896e-12 0)
(2.39902e-14 1.22974e-12 0)
(3.16034e-14 1.12465e-12 0)
(1.20396e-13 1.03887e-12 0)
(6.11264e-14 1.18351e-12 0)
(2.20805e-13 1.27736e-12 0)
(3.71661e-13 1.09777e-12 0)
(3.87217e-13 1.26688e-12 0)
(6.9351e-14 1.11825e-12 0)
(-2.42668e-13 1.42984e-12 0)
(-6.43927e-14 1.24746e-12 0)
(-4.70455e-14 1.10037e-12 0)
(-9.90696e-14 1.24011e-12 0)
(-9.67068e-14 1.2929e-12 0)
(-2.88265e-14 1.18581e-12 0)
(2.52752e-14 1.18767e-12 0)
(-3.99997e-14 1.09108e-12 0)
(-1.50883e-13 1.00805e-12 0)
(-2.45542e-13 1.03331e-12 0)
(-1.44358e-13 1.13608e-12 0)
(-1.02612e-13 1.13605e-12 0)
(7.03098e-15 1.16212e-12 0)
(-3.10806e-14 1.28018e-12 0)
(3.74287e-14 1.16074e-12 0)
(4.2642e-14 1.19143e-12 0)
(1.17385e-15 1.17439e-12 0)
(1.08431e-13 1.29752e-12 0)
(1.53962e-13 1.25453e-12 0)
(2.68662e-13 1.26158e-12 0)
(203.936 -0.00150836 0)
(203.656 -0.00149646 0)
(203.382 -0.00148154 0)
(203.111 -0.00146719 0)
(202.844 -0.00145491 0)
(202.581 -0.00144423 0)
(202.322 -0.00143468 0)
(202.069 -0.00142533 0)
(201.818 -0.00141567 0)
(201.57 -0.00140647 0)
(201.324 -0.00139865 0)
(201.082 -0.00139356 0)
(200.844 -0.00139174 0)
(200.615 -0.00139135 0)
(200.393 -0.00139207 0)
(200.169 -0.00139271 0)
(199.877 -0.0013928 0)
(199.267 -0.00139261 0)
(197.405 -0.0013854 0)
(190.759 -0.00133771 0)
(167.566 -0.00116464 0)
(105.535 -0.000729652 0)
(26.8668 -0.00019161 0)
(1.42371 -1.08382e-05 0)
(0.0109396 -9.12068e-08 0)
(9.01e-06 -8.00357e-11 0)
(1.13532e-09 4.67185e-13 0)
(1.4338e-13 5.2813e-13 0)
(-3.0656e-13 3.214e-13 0)
(-3.32242e-13 4.81136e-13 0)
(-1.0053e-13 5.59658e-13 0)
(-6.82406e-15 6.39589e-13 0)
(-2.67993e-13 7.55392e-13 0)
(-6.14617e-13 7.11973e-13 0)
(-4.39808e-13 8.64526e-13 0)
(-2.48114e-13 9.54637e-13 0)
(-5.88858e-14 9.84104e-13 0)
(-8.65002e-14 8.53166e-13 0)
(-2.27304e-13 8.88593e-13 0)
(-2.33621e-13 8.66713e-13 0)
(-1.30521e-13 1.06508e-12 0)
(-9.65849e-14 9.58769e-13 0)
(-8.7391e-14 1.10834e-12 0)
(-1.70826e-13 1.06694e-12 0)
(-2.68023e-13 9.833e-13 0)
(-1.57158e-13 8.00701e-13 0)
(-6.2441e-14 8.02903e-13 0)
(-3.07935e-14 8.87135e-13 0)
(-5.35783e-14 1.05014e-12 0)
(-9.22642e-14 1.12633e-12 0)
(-1.86589e-14 1.08504e-12 0)
(8.02289e-15 1.09034e-12 0)
(4.36943e-14 9.48771e-13 0)
(8.56869e-14 7.75245e-13 0)
(-3.37481e-14 8.65941e-13 0)
(7.73677e-14 6.91448e-13 0)
(2.28646e-13 7.26084e-13 0)
(8.19976e-14 7.92604e-13 0)
(-1.59054e-13 9.13996e-13 0)
(1.01349e-13 9.43756e-13 0)
(1.69347e-13 8.50928e-13 0)
(8.66442e-14 6.57905e-13 0)
(1.73254e-14 5.82651e-13 0)
(-1.1697e-14 6.73849e-13 0)
(-1.76423e-13 6.63272e-13 0)
(-4.23332e-13 8.01363e-13 0)
(-6.06988e-13 7.21114e-13 0)
(-4.64057e-13 9.03571e-13 0)
(-3.78129e-13 9.59025e-13 0)
(-2.6871e-13 9.58211e-13 0)
(-1.79704e-13 7.94998e-13 0)
(-2.50093e-13 8.99048e-13 0)
(-4.08981e-13 1.05487e-12 0)
(-3.20498e-13 1.30263e-12 0)
(-1.82329e-13 1.29979e-12 0)
(-1.17036e-13 1.37961e-12 0)
(-1.27394e-13 1.42869e-12 0)
(-1.21113e-13 1.43788e-12 0)
(-4.82373e-14 1.26166e-12 0)
(-1.25127e-13 1.39302e-12 0)
(-1.524e-13 1.21291e-12 0)
(-1.21889e-13 1.30891e-12 0)
(-1.93378e-13 1.1704e-12 0)
(-2.96082e-13 1.28637e-12 0)
(2.34933e-14 1.24449e-12 0)
(8.0822e-15 1.34519e-12 0)
(-6.51213e-14 1.38652e-12 0)
(-1.83154e-13 1.29988e-12 0)
(-1.81653e-13 1.35634e-12 0)
(-7.46833e-14 1.21452e-12 0)
(3.23491e-14 1.31492e-12 0)
(1.43215e-13 1.21382e-12 0)
(2.34605e-13 1.34103e-12 0)
(1.87675e-13 1.33636e-12 0)
(-1.01799e-13 1.31228e-12 0)
(-2.51639e-15 1.15923e-12 0)
(5.7021e-15 1.03302e-12 0)
(-2.52625e-14 8.66644e-13 0)
(-7.87489e-15 1.05402e-12 0)
(-3.59963e-14 1.10684e-12 0)
(9.12885e-14 1.29096e-12 0)
(-2.27632e-14 1.25171e-12 0)
(-7.53684e-14 1.33469e-12 0)
(1.87055e-14 1.32194e-12 0)
(3.74149e-14 1.37647e-12 0)
(-1.39552e-14 1.24686e-12 0)
(-1.05581e-13 1.39218e-12 0)
(-1.00781e-13 1.48319e-12 0)
(-6.92357e-14 1.36861e-12 0)
(2.99117e-13 1.31728e-12 0)
(1.93315e-13 1.34513e-12 0)
(1.39303e-13 1.22457e-12 0)
(2.79825e-13 1.12216e-12 0)
(1.04166e-14 1.07367e-12 0)
(-3.36326e-14 1.07961e-12 0)
(3.14618e-13 1.20765e-12 0)
(2.69135e-13 1.40383e-12 0)
(1.68625e-13 1.43598e-12 0)
(8.3957e-14 1.27882e-12 0)
(4.20103e-14 1.00186e-12 0)
(1.9217e-13 9.37305e-13 0)
(2.21023e-13 9.6394e-13 0)
(1.61948e-13 1.0456e-12 0)
(4.60764e-14 1.1531e-12 0)
(-1.01715e-13 1.24149e-12 0)
(-3.29113e-14 1.35754e-12 0)
(-1.95359e-14 1.27532e-12 0)
(-3.48685e-13 1.24603e-12 0)
(-3.44671e-13 1.26136e-12 0)
(-2.61264e-13 1.12978e-12 0)
(-4.86848e-13 9.85557e-13 0)
(-3.25183e-13 1.17001e-12 0)
(-2.60206e-13 1.40452e-12 0)
(-3.5205e-13 1.42409e-12 0)
(-2.8078e-14 1.33762e-12 0)
(-1.1453e-13 1.19164e-12 0)
(-2.29769e-13 1.09935e-12 0)
(5.60368e-15 1.11411e-12 0)
(1.98458e-13 1.25978e-12 0)
(8.10424e-14 1.18177e-12 0)
(2.63925e-14 1.38903e-12 0)
(6.4505e-14 1.36326e-12 0)
(1.07267e-13 1.47493e-12 0)
(1.79826e-13 1.49526e-12 0)
(2.96907e-13 1.29723e-12 0)
(3.19399e-13 1.06046e-12 0)
(1.58273e-13 1.04099e-12 0)
(-8.93663e-14 1.29797e-12 0)
(-1.63051e-13 1.45548e-12 0)
(-7.20002e-14 1.43943e-12 0)
(-2.24117e-14 1.56375e-12 0)
(-1.02447e-13 1.51588e-12 0)
(-9.51836e-14 1.41262e-12 0)
(5.4738e-15 1.24938e-12 0)
(-1.30461e-13 1.24818e-12 0)
(-2.38529e-13 1.07368e-12 0)
(-1.28286e-13 1.26791e-12 0)
(-3.5642e-14 1.484e-12 0)
(-1.09354e-13 1.59729e-12 0)
(1.02312e-13 1.60888e-12 0)
(-7.70761e-14 1.60557e-12 0)
(-8.26564e-14 1.50575e-12 0)
(1.22736e-13 1.30707e-12 0)
(1.29673e-13 1.39878e-12 0)
(9.42377e-14 1.30908e-12 0)
(1.00779e-13 1.37369e-12 0)
(1.56098e-13 1.41918e-12 0)
(203.936 -0.00149484 0)
(203.656 -0.00148808 0)
(203.382 -0.0014759 0)
(203.111 -0.00146073 0)
(202.844 -0.00144595 0)
(202.581 -0.00143264 0)
(202.322 -0.00142079 0)
(202.069 -0.00141005 0)
(201.818 -0.00140037 0)
(201.57 -0.00139174 0)
(201.324 -0.00138459 0)
(201.082 -0.0013792 0)
(200.844 -0.00137572 0)
(200.615 -0.00137439 0)
(200.393 -0.00137468 0)
(200.169 -0.00137582 0)
(199.877 -0.0013768 0)
(199.267 -0.00137544 0)
(197.405 -0.00136257 0)
(190.759 -0.0013121 0)
(167.567 -0.00114162 0)
(105.535 -0.000715947 0)
(26.8672 -0.000188268 0)
(1.42375 -1.06616e-05 0)
(0.01094 -8.97993e-08 0)
(9.01052e-06 -7.9121e-11 0)
(1.13524e-09 4.81936e-13 0)
(-5.34579e-14 2.91012e-13 0)
(-2.8388e-13 2.35416e-13 0)
(1.23192e-14 4.04947e-13 0)
(1.13195e-13 6.55097e-13 0)
(6.73258e-14 8.59342e-13 0)
(-2.7474e-13 8.08592e-13 0)
(-5.74697e-13 8.24914e-13 0)
(-4.20336e-13 8.17062e-13 0)
(-2.0931e-13 7.25172e-13 0)
(-1.11102e-13 8.43327e-13 0)
(-2.13491e-14 7.97628e-13 0)
(-1.82934e-13 9.70714e-13 0)
(-2.10995e-13 9.42611e-13 0)
(-1.38031e-13 9.75118e-13 0)
(-7.15652e-14 7.66989e-13 0)
(-7.38176e-15 8.89472e-13 0)
(-2.35616e-13 7.95614e-13 0)
(-3.61828e-13 9.441e-13 0)
(-2.94873e-13 9.11459e-13 0)
(-6.97755e-14 9.78051e-13 0)
(1.53543e-13 9.49107e-13 0)
(7.19861e-14 1.1584e-12 0)
(-1.73251e-13 1.01656e-12 0)
(-5.41744e-14 1.10691e-12 0)
(-1.02002e-14 9.01233e-13 0)
(-5.64571e-14 9.49668e-13 0)
(9.01791e-14 9.28124e-13 0)
(-9.52951e-15 1.04475e-12 0)
(3.92302e-14 9.95557e-13 0)
(1.95058e-13 1.04047e-12 0)