/*--------------------------------*- C++ -*----------------------------------*\
  =========                 |
  \\      /  F ield         | OpenFOAM: The Open Source CFD Toolbox
   \\    /   O peration     | Website:  https://openfoam.org
    \\  /    A nd           | Version:  13
     \\/     M anipulation  |
\*---------------------------------------------------------------------------*/
FoamFile
{
    format      ascii;
    class       volVectorField;
    location    "0.0018";
    object      U;
}
// * * * * * * * * * * * * * * * * * * * * * * * * * * * * * * * * * * * * * //

dimensions      [0 1 -1 0 0 0 0];

internalField   nonuniform List<vector> 
33333
(
(-4.76582e-13 4.32558e-13 0)
(-6.91025e-14 3.25148e-13 0)
(6.11593e-14 1.37901e-13 0)
(3.66164e-13 1.79746e-13 0)
(4.68468e-13 -5.04721e-14 0)
(8.48794e-15 -2.60875e-14 0)
(-2.26281e-13 -8.98091e-14 0)
(-3.1264e-13 -1.06271e-13 0)
(-5.39759e-13 -7.33686e-14 0)
(-4.95544e-13 1.27524e-13 0)
(-5.20731e-14 1.55509e-13 0)
(4.49368e-13 1.16976e-13 0)
(4.92404e-13 -9.51019e-14 0)
(1.04417e-13 1.96745e-14 0)
(-1.01535e-13 8.28945e-14 0)
(-2.49523e-15 2.18523e-13 0)
(-2.4874e-13 1.32235e-13 0)
(-4.15159e-13 2.34112e-13 0)
(-6.32832e-14 2.64194e-13 0)
(2.53769e-13 2.57044e-13 0)
(5.78597e-13 2.33859e-13 0)
(4.14044e-13 5.78144e-14 0)
(7.4223e-14 3.11243e-13 0)
(-3.10396e-13 1.201e-13 0)
(-5.20571e-13 2.52593e-13 0)
(-1.43507e-13 3.06263e-13 0)
(1.48327e-13 3.14582e-13 0)
(4.22662e-13 3.28613e-13 0)
(6.85892e-13 4.50525e-13 0)
(5.08678e-13 9.25042e-14 0)
(8.60738e-14 9.76495e-14 0)
(-8.84772e-14 1.88575e-13 0)
(-1.75049e-13 1.05155e-13 0)
(-5.71241e-13 7.66578e-14 0)
(-5.65509e-13 2.52155e-13 0)
(-2.38687e-13 3.05035e-13 0)
(1.27782e-13 2.9319e-13 0)
(1.25734e-13 1.20171e-13 0)
(-3.74772e-13 7.21885e-14 0)
(-8.01569e-13 1.94664e-13 0)
(-6.86429e-13 2.65403e-13 0)
(-4.05204e-13 3.07883e-13 0)
(-2.75684e-13 3.45423e-13 0)
(-1.00857e-13 2.80322e-13 0)
(7.77159e-14 3.87986e-13 0)
(3.53942e-13 3.72722e-13 0)
(5.54905e-13 4.30604e-13 0)
(5.11449e-13 3.5014e-13 0)
(2.56567e-13 4.16672e-13 0)
(2.43155e-13 4.17189e-13 0)
(4.03881e-13 3.57032e-13 0)
(4.88562e-13 3.99334e-13 0)
(4.491e-13 3.72163e-13 0)
(4.38794e-13 3.77588e-13 0)
(3.59764e-13 7.50702e-14 0)
(-5.50181e-14 5.96194e-14 0)
(-2.44276e-13 1.93729e-13 0)
(-1.5696e-13 1.5311e-13 0)
(-3.66401e-13 3.68244e-14 0)
(-4.66588e-13 1.78413e-13 0)
(-9.33298e-14 2.08692e-13 0)
(3.74672e-13 2.01527e-13 0)
(4.34741e-13 6.73859e-14 0)
(-4.20653e-14 2.51037e-14 0)
(-2.52376e-13 1.03938e-13 0)
(-1.79802e-13 1.66432e-13 0)
(-2.88131e-13 1.16412e-13 0)
(-4.23377e-13 2.15573e-13 0)
(-3.60042e-13 2.44877e-13 0)
(-1.14029e-13 1.56866e-13 0)
(2.06103e-13 6.81984e-14 0)
(6.1796e-14 6.21828e-14 0)
(-5.58472e-14 -3.63761e-14 0)
(-7.39627e-14 -8.96305e-14 0)
(-1.84216e-13 1.99962e-14 0)
(-2.38929e-15 1.06908e-13 0)
(2.63906e-13 2.20556e-13 0)
(4.52084e-13 2.78416e-13 0)
(4.19755e-13 3.96272e-13 0)
(3.73272e-13 2.88405e-13 0)
(-1.53497e-13 2.03809e-13 0)
(-3.49512e-13 2.51277e-13 0)
(8.88611e-14 1.79948e-13 0)
(5.10386e-14 6.36824e-14 0)
(-5.28754e-14 2.87796e-13 0)
(2.86056e-13 4.33398e-13 0)
(5.32343e-13 4.28929e-13 0)
(3.37339e-13 9.36393e-14 0)
(-1.58642e-13 8.5724e-15 0)
(-3.34541e-13 1.43968e-13 0)
(-8.03458e-14 1.90892e-13 0)
(-1.29315e-13 1.02846e-13 0)
(-3.08364e-13 2.21547e-13 0)
(-1.10391e-13 3.49683e-13 0)
(9.34228e-14 3.66861e-13 0)
(2.14909e-13 2.91344e-13 0)
(5.585e-14 1.18466e-13 0)
(-8.29099e-14 2.5792e-13 0)
(-3.04139e-13 1.22063e-13 0)
(-4.32786e-13 2.94549e-13 0)
(-6.62524e-14 3.17862e-13 0)
(3.71308e-13 2.84336e-13 0)
(6.46389e-13 3.36442e-13 0)
(7.63789e-13 4.33737e-13 0)
(6.13267e-13 8.72197e-14 0)
(1.08344e-13 8.05304e-14 0)
(-7.3687e-14 1.64581e-13 0)
(1.12202e-14 1.67815e-13 0)
(-2.67818e-13 3.22584e-14 0)
(-4.90503e-13 1.86189e-13 0)
(-3.08846e-13 2.52268e-13 0)
(1.09782e-13 2.48829e-13 0)
(1.91592e-13 7.56655e-14 0)
(-2.45968e-13 1.30434e-14 0)
(-5.98674e-13 8.12592e-14 0)
(-4.15632e-13 5.47136e-14 0)
(-3.51724e-13 -8.88979e-15 0)
(-3.76587e-13 1.12302e-13 0)
(1.41909e-14 2.49124e-13 0)
(4.00046e-13 1.70985e-13 0)
(3.1522e-13 -7.77981e-15 0)
(4.1943e-14 9.53375e-14 0)
(1.21813e-13 2.64523e-13 0)
(-2.65123e-13 1.668e-13 0)
(-4.18073e-13 2.37229e-13 0)
(-3.22633e-14 2.1065e-13 0)
(2.00032e-13 2.33661e-13 0)
(2.65987e-13 2.53107e-13 0)
(3.38573e-13 3.96679e-13 0)
(3.94146e-13 2.1173e-13 0)
(1.4797e-13 1.80213e-13 0)
(4.26048e-14 2.10655e-13 0)
(2.53086e-13 1.82384e-13 0)
(1.61104e-13 6.12349e-14 0)
(7.06261e-14 2.86684e-13 0)
(4.2393e-13 4.79018e-13 0)
(6.44612e-13 6.28958e-13 0)
(8.34249e-13 3.82504e-13 0)
(6.15084e-13 1.68158e-13 0)
(5.01805e-13 8.70203e-14 0)
(7.46247e-13 -1.95639e-16 0)
(5.9543e-13 -4.05412e-14 0)
(7.67861e-13 5.52142e-14 0)
(1.11926e-12 6.17861e-14 0)
(1.25417e-12 2.14836e-13 0)
(1.5077e-12 2.57659e-13 0)
(1.39441e-12 1.61347e-13 0)
(1.13353e-12 4.17738e-13 0)
(1.21821e-12 4.2298e-13 0)
(1.38817e-12 4.55583e-13 0)
(1.63723e-12 4.87791e-13 0)
(1.90875e-12 4.2145e-13 0)
(1.80855e-12 2.46119e-13 0)
(1.76207e-12 3.77149e-13 0)
(1.88023e-12 2.43395e-13 0)
(1.63022e-12 1.25364e-13 0)
(1.77957e-12 1.37656e-14 0)
(1.78326e-12 -8.64572e-14 0)
(1.19129e-12 -6.92501e-14 0)
(5.47686e-13 2.0264e-14 0)
(3.70209e-13 1.17349e-13 0)
(-6.29498e-14 2.06681e-13 0)
(-8.73788e-13 8.49724e-14 0)
(-1.44313e-12 1.32495e-13 0)
(-2.08897e-12 3.53355e-13 0)
(-2.53407e-12 4.47584e-13 0)
(-2.58586e-12 2.45342e-13 0)
(-4.35665e-13 4.01101e-13 0)
(-2.25669e-13 5.42462e-13 0)
(1.61277e-14 4.41455e-13 0)
(2.45582e-13 3.74071e-13 0)
(2.93621e-13 1.2857e-13 0)
(-4.95388e-14 2.0312e-13 0)
(-3.13551e-13 1.14571e-13 0)
(-2.89921e-13 1.66732e-13 0)
(-4.19004e-13 1.09701e-13 0)
(-3.4205e-13 2.76615e-13 0)
(-5.85586e-14 4.46701e-13 0)
(3.25505e-13 2.17074e-13 0)
(4.61367e-13 -3.31187e-14 0)
(1.94317e-13 -9.76936e-15 0)
(3.75179e-14 1.88848e-13 0)
(5.50606e-14 3.2829e-13 0)
(-3.03207e-13 3.42294e-13 0)
(-2.98838e-13 5.65103e-13 0)
(8.10423e-15 6.05365e-13 0)
(1.9868e-13 5.7163e-13 0)
(4.69702e-13 5.02989e-13 0)
(4.80991e-13 3.59084e-13 0)
(1.22921e-13 3.02686e-13 0)
(-3.38088e-13 4.08009e-13 0)
(-3.95347e-13 6.14255e-13 0)
(-9.57687e-14 5.06969e-13 0)
(1.9152e-13 5.68516e-13 0)
(5.34983e-13 5.61859e-13 0)
(5.13117e-13 3.9086e-13 0)
(3.18809e-13 2.21205e-13 0)
(1.80047e-13 2.45572e-13 0)
(-5.36445e-14 1.36748e-13 0)
(-2.67455e-13 3.18523e-13 0)
(-5.86808e-13 3.37432e-13 0)
(-4.67348e-13 5.0349e-13 0)
(-2.47331e-13 5.4793e-13 0)
(-5.29456e-14 5.25236e-13 0)
(-5.11071e-14 2.59017e-13 0)
(-3.41197e-13 1.88914e-13 0)
(-7.02908e-13 3.73297e-13 0)
(-6.66188e-13 4.91468e-13 0)
(-3.7445e-13 4.72049e-13 0)
(-3.00876e-13 5.56876e-13 0)
(-3.92865e-14 5.02129e-13 0)
(2.00188e-13 6.12317e-13 0)
(3.58551e-13 7.49537e-13 0)
(4.64158e-13 7.9299e-13 0)
(3.90023e-13 5.86735e-13 0)
(2.40368e-13 5.47157e-13 0)
(1.60073e-13 6.00145e-13 0)
(3.76297e-13 4.31932e-13 0)
(4.62846e-13 3.27326e-13 0)
(4.07586e-13 2.76387e-13 0)
(2.75165e-13 3.54498e-13 0)
(1.85014e-13 2.23021e-13 0)
(6.08235e-14 7.18682e-14 0)
(-4.58629e-14 2.32896e-13 0)
(-2.5615e-13 4.02501e-13 0)
(-4.69452e-13 3.20949e-13 0)
(-3.80121e-13 2.59562e-13 0)
(-6.04727e-14 3.21797e-13 0)
(3.29006e-13 2.50424e-13 0)
(3.48861e-13 3.62968e-15 0)
(-1.03161e-14 1.84187e-14 0)
(-1.37841e-13 3.0648e-13 0)
(-1.24678e-13 3.27416e-13 0)
(-2.41268e-13 5.37097e-13 0)
(-3.7716e-13 6.45269e-13 0)
(-4.62409e-13 5.16164e-13 0)
(-2.14155e-13 3.69773e-13 0)
(1.52655e-13 2.38731e-13 0)
(1.8385e-14 6.46644e-14 0)
(-1.45145e-13 1.51795e-13 0)
(-2.42861e-14 6.72927e-14 0)
(-7.83679e-14 2.31602e-13 0)
(6.86325e-14 3.59317e-13 0)
(2.46358e-13 4.65749e-13 0)
(4.77414e-13 3.19965e-13 0)
(4.85188e-13 2.40649e-13 0)
(2.97415e-13 1.55516e-13 0)
(-1.84405e-13 1.69195e-13 0)
(-3.04267e-13 2.19653e-13 0)
(-5.4707e-14 3.56079e-13 0)
(3.4831e-14 2.89846e-13 0)
(1.46944e-13 3.78304e-13 0)
(3.54119e-13 3.30006e-13 0)
(3.71791e-13 2.27106e-13 0)
(1.91004e-13 1.41528e-13 0)
(-2.19081e-14 5.18365e-14 0)
(-1.86209e-13 2.86428e-13 0)
(-1.22084e-13 4.61742e-13 0)
(-2.01589e-13 4.65168e-13 0)
(-2.05896e-13 4.00455e-13 0)
(-1.75632e-14 3.36997e-13 0)
(1.1507e-13 3.03534e-13 0)
(1.20017e-13 2.494e-13 0)
(1.18578e-13 2.63233e-13 0)
(-5.11448e-14 2.6072e-13 0)
(-2.99125e-13 3.27712e-13 0)
(-2.7299e-13 4.06704e-13 0)
(1.2499e-14 4.31205e-13 0)
(3.12979e-13 5.25725e-13 0)
(6.64835e-13 4.04007e-13 0)
(6.6668e-13 3.75145e-13 0)
(4.38499e-13 3.03736e-13 0)
(1.92634e-13 1.88458e-13 0)
(6.57367e-14 3.23397e-13 0)
(-1.15183e-13 4.50247e-13 0)
(-3.67061e-13 3.15612e-13 0)
(-3.99681e-13 1.88675e-13 0)
(-2.73844e-13 1.83464e-13 0)
(3.99747e-14 1.81832e-13 0)
(8.10624e-14 1.96644e-15 0)
(-2.04885e-13 -7.27759e-15 0)
(-4.9905e-13 1.58094e-13 0)
(-5.1473e-13 2.23554e-13 0)
(-3.64e-13 1.45241e-13 0)
(-1.99294e-13 3.03017e-13 0)
(-7.31838e-15 4.23388e-13 0)
(2.09195e-13 3.45869e-13 0)
(3.38324e-13 1.44695e-13 0)
(3.58661e-13 2.17569e-13 0)
(1.26846e-13 3.33205e-13 0)
(-3.53499e-13 3.88794e-13 0)
(-3.35083e-13 5.30757e-13 0)
(-3.63303e-14 4.13357e-13 0)
(1.59747e-13 3.9002e-13 0)
(4.21607e-13 3.28384e-13 0)
(4.15098e-13 4.16467e-13 0)
(3.00824e-13 5.59679e-13 0)
(1.70344e-13 5.96761e-13 0)
(5.6427e-14 3.94642e-13 0)
(1.1626e-13 4.12069e-13 0)
(1.46445e-13 3.3468e-13 0)
(2.73595e-13 3.76783e-13 0)
(5.91774e-13 4.10586e-13 0)
(5.64051e-13 3.66104e-13 0)
(6.32662e-13 2.58631e-13 0)
(6.21176e-13 1.41027e-13 0)
(4.9438e-13 1.29258e-13 0)
(6.85714e-13 1.11384e-13 0)
(8.21269e-13 1.43651e-13 0)
(1.02581e-12 3.68057e-13 0)
(1.2495e-12 6.62157e-13 0)
(1.38915e-12 8.34488e-13 0)
(1.52055e-12 7.36896e-13 0)
(1.71233e-12 5.01521e-13 0)
(1.55505e-12 6.62149e-13 0)
(1.3377e-12 6.1506e-13 0)
(1.50038e-12 4.78112e-13 0)
(1.68812e-12 3.48953e-13 0)
(1.86162e-12 3.81774e-13 0)
(1.92709e-12 2.95308e-13 0)
(1.86674e-12 3.4099e-13 0)
(1.75795e-12 -1.59666e-15 0)
(1.6537e-12 -4.73297e-15 0)
(1.75178e-12 2.06106e-13 0)
(1.76231e-12 1.11046e-13 0)
(1.5309e-12 1.05616e-13 0)
(8.32849e-13 3.35163e-13 0)
(4.98564e-13 4.66282e-13 0)
(2.4206e-14 2.84643e-13 0)
(-8.89519e-13 2.56496e-13 0)
(-1.42572e-12 3.42676e-13 0)
(-2.02835e-12 2.92963e-13 0)
(-2.49944e-12 5.73998e-13 0)
(-2.71601e-12 4.6293e-13 0)
(-3.26334e-13 5.55787e-13 0)
(-1.0649e-13 5.74734e-13 0)
(3.8852e-14 6.04326e-13 0)
(1.32881e-13 6.17499e-13 0)
(2.9143e-13 4.85858e-13 0)
(-7.41388e-15 3.9323e-13 0)
(-2.81336e-13 3.66505e-13 0)
(-3.74062e-13 2.24441e-13 0)
(-5.28863e-13 2.87393e-13 0)
(-2.51984e-13 4.59775e-13 0)
(-4.61137e-14 6.06875e-13 0)
(1.58968e-13 4.65928e-13 0)
(3.62272e-13 3.66353e-13 0)
(2.64336e-13 1.79776e-13 0)
(8.84817e-14 1.15886e-13 0)
(9.6358e-14 7.42601e-14 0)
(-2.38673e-14 2.14809e-13 0)
(-1.6725e-13 5.58778e-13 0)
(1.16732e-14 7.19036e-13 0)
(1.86554e-13 6.677e-13 0)
(3.63264e-13 6.80598e-13 0)
(2.7436e-13 7.22653e-13 0)
(1.59899e-13 5.99464e-13 0)
(-1.20529e-13 5.83203e-13 0)
(-4.18588e-13 6.89243e-13 0)
(-1.7502e-13 7.01918e-13 0)
(2.03868e-13 7.46264e-13 0)
(4.18281e-13 6.61769e-13 0)
(4.24647e-13 4.89999e-13 0)
(3.40865e-13 4.48208e-13 0)
(1.90094e-14 3.25491e-13 0)
(-1.38495e-13 3.02091e-13 0)
(-1.34255e-13 2.68336e-13 0)
(-4.3848e-13 3.81178e-13 0)
(-4.38787e-13 6.45767e-13 0)
(-2.04973e-13 7.55834e-13 0)
(-1.3359e-13 9.27133e-13 0)
(-2.11776e-13 7.15032e-13 0)
(-2.80551e-13 4.70454e-13 0)
(-5.65028e-13 3.52826e-13 0)
(-6.50782e-13 5.44493e-13 0)
(-3.91434e-13 5.18432e-13 0)
(-2.60073e-13 5.80139e-13 0)
(-2.70992e-14 7.38689e-13 0)
(3.28299e-13 7.62026e-13 0)
(4.37693e-13 8.72785e-13 0)
(3.77688e-13 7.13063e-13 0)
(2.46264e-13 6.21924e-13 0)
(2.58044e-13 5.47424e-13 0)
(1.71116e-13 5.72183e-13 0)
(2.1052e-13 6.51269e-13 0)
(3.60274e-13 6.15072e-13 0)
(4.40451e-13 5.45267e-13 0)
(3.31368e-13 4.16477e-13 0)
(1.16015e-13 3.30829e-13 0)
(1.69135e-14 3.73132e-13 0)
(6.02493e-14 3.47932e-13 0)
(-1.10507e-13 2.12903e-13 0)
(-4.91482e-13 2.61982e-13 0)
(-4.59444e-13 4.88732e-13 0)
(-1.25996e-13 6.29408e-13 0)
(1.16927e-13 4.76158e-13 0)
(2.37997e-13 1.87293e-13 0)
(2.18994e-13 1.63786e-13 0)
(5.28429e-14 3.01304e-13 0)
(1.88544e-14 6.03758e-13 0)
(-4.87145e-14 6.33214e-13 0)
(-4.68476e-13 5.35856e-13 0)
(-5.86929e-13 4.74714e-13 0)
(-3.59453e-13 4.92873e-13 0)
(-2.56179e-14 3.32151e-13 0)
(3.54191e-15 9.94698e-14 0)
(-5.77658e-14 1.98263e-13 0)
(-4.89319e-15 1.78897e-13 0)
(5.25716e-14 2.91858e-13 0)
(1.53406e-13 4.55944e-13 0)
(2.19552e-13 5.39766e-13 0)
(3.01796e-13 4.57626e-13 0)
(3.66972e-13 3.28392e-13 0)
(2.93422e-13 2.63344e-13 0)
(-1.32479e-13 2.1103e-13 0)
(-2.36202e-13 3.22336e-13 0)
(8.26658e-14 2.46674e-13 0)
(4.44627e-14 3.38729e-13 0)
(1.94671e-14 4.40747e-13 0)
(2.25117e-13 5.04024e-13 0)
(3.66634e-13 4.95777e-13 0)
(2.21437e-13 5.20145e-13 0)
(7.22982e-14 3.26381e-13 0)
(-3.59288e-14 2.36345e-13 0)
(1.46576e-14 3.94056e-13 0)
(-1.234e-13 5.38686e-13 0)
(-3.12721e-13 6.43608e-13 0)
(-1.1659e-13 6.48778e-13 0)
(7.86862e-14 6.32255e-13 0)
(1.84907e-13 5.81287e-13 0)
(1.43777e-13 6.98257e-13 0)
(-3.51901e-15 6.03922e-13 0)
(-2.06777e-13 4.37097e-13 0)
(-3.11836e-13 6.20159e-13 0)
(-1.06064e-14 6.71883e-13 0)
(2.48819e-13 7.85248e-13 0)
(4.95992e-13 6.54072e-13 0)
(6.76107e-13 5.08803e-13 0)
(4.13066e-13 4.73477e-13 0)
(1.09027e-13 4.8379e-13 0)
(1.34519e-13 4.98e-13 0)
(-3.75497e-14 3.27877e-13 0)
(-4.61092e-13 2.74821e-13 0)
(-5.28e-13 3.57642e-13 0)
(-2.51997e-13 4.25316e-13 0)
(-2.78984e-14 5.13417e-13 0)
(-1.76189e-14 3.10217e-13 0)
(-1.40597e-13 1.15845e-13 0)
(-4.17694e-13 5.19444e-14 0)
(-4.75949e-13 2.64005e-13 0)
(-2.61031e-13 3.0257e-13 0)
(-7.39265e-14 5.05166e-13 0)
(5.84233e-14 5.15517e-13 0)
(2.13602e-13 5.82058e-13 0)
(3.26052e-13 4.92853e-13 0)
(3.10086e-13 6.84466e-13 0)
(1.86715e-13 5.79987e-13 0)
(-1.96967e-13 4.15592e-13 0)
(-3.67143e-13 6.33986e-13 0)
(-1.08661e-13 6.27768e-13 0)
(1.58155e-13 6.14354e-13 0)
(3.11689e-13 6.8211e-13 0)
(4.76218e-13 5.95848e-13 0)
(4.69063e-13 7.00576e-13 0)
(5.2503e-14 7.16622e-13 0)
(-1.15367e-13 5.86493e-13 0)
(1.33316e-13 4.55243e-13 0)
(3.05903e-14 4.70187e-13 0)
(1.51021e-13 4.94219e-13 0)
(4.19616e-13 5.5436e-13 0)
(5.00032e-13 3.95588e-13 0)
(6.895e-13 5.361e-13 0)
(5.62348e-13 3.24e-13 0)
(4.94545e-13 2.95286e-13 0)
(7.45468e-13 2.3126e-13 0)
(9.40778e-13 2.22089e-13 0)
(1.2696e-12 4.78559e-13 0)
(1.51583e-12 5.3635e-13 0)
(1.37881e-12 6.49484e-13 0)
(1.34314e-12 5.79379e-13 0)
(1.51961e-12 4.41596e-13 0)
(1.47636e-12 3.78409e-13 0)
(1.29245e-12 4.42976e-13 0)
(1.402e-12 4.49845e-13 0)
(1.61881e-12 3.82073e-13 0)
(1.91324e-12 3.33997e-13 0)
(2.01669e-12 2.67718e-13 0)
(1.67405e-12 1.50713e-13 0)
(1.59721e-12 -4.60996e-14 0)
(1.86438e-12 3.53024e-14 0)
(1.91846e-12 9.26212e-14 0)
(1.65001e-12 9.09503e-14 0)
(1.50328e-12 2.18499e-13 0)
(1.07822e-12 3.81856e-13 0)
(4.56103e-13 5.29972e-13 0)
(-1.03319e-13 3.11768e-13 0)
(-8.38113e-13 4.30337e-13 0)
(-1.53165e-12 4.07902e-13 0)
(-2.01552e-12 5.24334e-13 0)
(-2.28407e-12 5.26386e-13 0)
(-2.85686e-12 3.38649e-13 0)
(-2.63113e-13 8.61946e-13 0)
(-1.22271e-13 7.73768e-13 0)
(8.07722e-14 7.14872e-13 0)
(1.12176e-13 8.42601e-13 0)
(1.53873e-13 7.81855e-13 0)
(-1.05067e-13 5.75031e-13 0)
(-4.42155e-13 5.93844e-13 0)
(-3.87426e-13 4.00827e-13 0)
(-3.21373e-13 5.56365e-13 0)
(-6.68258e-14 7.66822e-13 0)
(-4.08361e-14 8.04464e-13 0)
(8.61323e-14 8.12039e-13 0)
(2.16249e-13 6.95231e-13 0)
(4.61731e-14 5.83923e-13 0)
(5.79444e-15 4.17946e-13 0)
(8.06962e-14 5.21309e-13 0)
(1.38947e-13 5.05735e-13 0)
(1.52834e-13 7.21875e-13 0)
(6.84528e-14 8.35181e-13 0)
(1.78396e-13 8.29149e-13 0)
(4.18956e-13 7.79585e-13 0)
(3.66772e-13 6.64491e-13 0)
(5.23351e-14 6.68654e-13 0)
(-1.74915e-13 4.2183e-13 0)
(-2.4854e-13 6.08392e-13 0)
(-9.75313e-14 9.24116e-13 0)
(1.49423e-13 1.04529e-12 0)
(3.68757e-13 9.67011e-13 0)
(3.48745e-13 8.25394e-13 0)
(1.97137e-13 6.63179e-13 0)
(-4.99528e-14 5.6326e-13 0)
(-1.98182e-13 6.10832e-13 0)
(-1.79107e-13 4.56688e-13 0)
(-2.012e-13 5.42557e-13 0)
(-1.74216e-13 8.37565e-13 0)
(1.74598e-14 9.43883e-13 0)
(-1.03085e-13 9.95858e-13 0)
(-4.52198e-13 9.21939e-13 0)
(-4.99057e-13 8.1756e-13 0)
(-5.56374e-13 6.36036e-13 0)
(-5.18711e-13 7.68721e-13 0)
(-2.9601e-13 7.11687e-13 0)
(-8.89001e-14 8.53383e-13 0)
(6.09629e-14 1.00379e-12 0)
(2.78717e-13 8.60734e-13 0)
(3.64742e-13 7.62283e-13 0)
(2.69318e-13 6.24642e-13 0)
(1.94543e-13 7.07491e-13 0)
(1.71231e-13 6.01179e-13 0)
(2.76541e-13 6.83274e-13 0)
(3.21968e-13 8.50909e-13 0)
(3.49007e-13 8.13517e-13 0)
(2.02556e-13 6.91557e-13 0)
(1.3193e-13 2.88508e-13 0)
(1.62521e-13 1.99204e-13 0)
(7.02128e-14 3.15601e-13 0)
(-9.68755e-14 4.26634e-13 0)
(-2.18893e-13 3.62455e-13 0)
(-2.42537e-13 4.0973e-13 0)
(-1.307e-13 7.17525e-13 0)
(-9.82278e-14 8.79066e-13 0)
(-8.13995e-14 7.86273e-13 0)
(1.14205e-13 6.41439e-13 0)
(1.58755e-13 5.66847e-13 0)
(2.69667e-13 5.19585e-13 0)
(2.23327e-13 7.08653e-13 0)
(-2.14742e-13 4.6189e-13 0)
(-4.88805e-13 5.80259e-13 0)
(-4.76687e-13 7.26462e-13 0)
(-3.52363e-13 8.12569e-13 0)
(-2.44627e-13 7.06467e-13 0)
(-1.01546e-13 4.62646e-13 0)
(-3.43898e-14 5.36049e-13 0)
(8.87272e-14 4.68155e-13 0)
(1.80093e-13 6.05473e-13 0)
(1.77886e-13 7.7837e-13 0)
(1.74386e-13 8.05105e-13 0)
(2.24587e-13 7.6418e-13 0)
(3.43683e-13 6.82269e-13 0)
(2.40651e-13 4.99702e-13 0)
(-1.28117e-13 3.72041e-13 0)
(-3.38947e-13 5.13785e-13 0)
(-5.73752e-14 3.4902e-13 0)
(1.81052e-13 4.1942e-13 0)
(2.26711e-13 6.7227e-13 0)
(3.17201e-13 7.69276e-13 0)
(3.28847e-13 7.24057e-13 0)
(8.2576e-14 6.67918e-13 0)
(-1.28594e-13 6.56855e-13 0)
(-5.87609e-14 5.72698e-13 0)
(6.07348e-14 6.75535e-13 0)
(3.73742e-14 6.65741e-13 0)
(-9.90395e-14 7.85962e-13 0)
(-4.93529e-14 8.96895e-13 0)
(2.93269e-14 8.68468e-13 0)
(2.12098e-13 7.7896e-13 0)
(1.56354e-13 6.89621e-13 0)
(-2.22934e-13 7.26367e-13 0)
(-2.30175e-13 5.72092e-13 0)
(-1.19875e-13 8.6717e-13 0)
(1.60386e-14 1.02924e-12 0)
(2.5217e-13 1.05403e-12 0)
(4.41586e-13 1.05144e-12 0)
(5.1878e-13 9.28266e-13 0)
(3.89064e-13 7.09325e-13 0)
(2.01213e-13 7.06238e-13 0)
(-6.95427e-14 6.35875e-13 0)
(-2.92049e-13 3.92564e-13 0)
(-3.96878e-13 3.93953e-13 0)
(-2.79007e-13 5.85393e-13 0)
(-2.64784e-14 6.55457e-13 0)
(-1.19e-13 7.20135e-13 0)
(-3.03214e-13 5.37733e-13 0)
(-3.47811e-13 3.93523e-13 0)
(-3.52006e-13 2.63025e-13 0)
(-3.40915e-13 5.47613e-13 0)
(-1.31055e-13 6.53869e-13 0)
(-1.10469e-14 8.67449e-13 0)
(2.5656e-14 8.33444e-13 0)
(1.81646e-13 8.9655e-13 0)
(4.61175e-13 8.43312e-13 0)
(4.00385e-13 7.43656e-13 0)
(-3.57038e-14 6.84385e-13 0)
(-2.16901e-13 6.33285e-13 0)
(-1.9821e-13 8.16407e-13 0)
(-1.62379e-14 9.21719e-13 0)
(2.10572e-13 1.03819e-12 0)
(3.25709e-13 1.11813e-12 0)
(3.97234e-13 9.78779e-13 0)
(4.35419e-13 7.93894e-13 0)
(6.64508e-14 7.17023e-13 0)
(-2.93242e-13 7.91655e-13 0)
(-8.7698e-15 6.59921e-13 0)
(1.08631e-13 6.23097e-13 0)
(2.95494e-13 7.8407e-13 0)
(4.5059e-13 8.90403e-13 0)
(5.66775e-13 8.06723e-13 0)
(5.44207e-13 6.81088e-13 0)
(3.42595e-13 4.96121e-13 0)
(4.24967e-13 5.36426e-13 0)
(6.23458e-13 3.77729e-13 0)
(9.99599e-13 2.24649e-13 0)
(1.29385e-12 2.87426e-13 0)
(1.46727e-12 9.72997e-14 0)
(1.48952e-12 5.85987e-14 0)
(1.3185e-12 1.48698e-13 0)
(1.44615e-12 2.00442e-13 0)
(1.54793e-12 1.37791e-13 0)
(1.46207e-12 3.42291e-13 0)
(1.433e-12 6.42809e-13 0)
(1.61137e-12 6.08036e-13 0)
(1.80021e-12 5.13201e-13 0)
(1.80139e-12 3.33752e-13 0)
(1.59126e-12 2.99773e-13 0)
(1.65273e-12 3.66928e-13 0)
(1.78424e-12 2.63085e-13 0)
(1.82855e-12 2.71816e-13 0)
(1.76156e-12 2.65514e-13 0)
(1.60917e-12 2.69795e-13 0)
(1.10055e-12 2.24498e-13 0)
(4.33253e-13 3.20798e-13 0)
(-1.6271e-13 2.68778e-13 0)
(-7.85891e-13 2.51929e-13 0)
(-1.43303e-12 2.81797e-13 0)
(-1.98364e-12 6.15287e-13 0)
(-2.56039e-12 5.82448e-13 0)
(-3.062e-12 5.2915e-13 0)
(-2.58009e-13 7.41434e-13 0)
(-2.52571e-13 7.01939e-13 0)
(9.97029e-14 7.18048e-13 0)
(2.25242e-13 8.39091e-13 0)
(4.39161e-15 7.60678e-13 0)
(-1.59473e-13 4.9525e-13 0)
(-4.15129e-13 5.98405e-13 0)
(-4.04854e-13 6.14422e-13 0)
(-2.06523e-13 5.77565e-13 0)
(-1.4066e-13 5.45762e-13 0)
(-3.76672e-14 4.58566e-13 0)
(8.07277e-14 5.63805e-13 0)
(1.24729e-13 4.521e-13 0)
(5.15714e-14 4.89468e-13 0)
(1.05265e-13 6.54866e-13 0)
(1.64543e-13 5.85826e-13 0)
(1.83853e-13 5.63116e-13 0)
(1.86343e-13 6.3001e-13 0)
(1.38054e-13 6.62949e-13 0)
(9.42561e-14 6.55506e-13 0)
(1.73615e-13 5.56835e-13 0)
(1.32351e-13 2.67531e-13 0)
(-4.56398e-14 3.22703e-13 0)
(-1.13685e-13 5.03649e-13 0)
(8.8464e-14 8.02814e-13 0)
(2.61149e-13 8.81379e-13 0)
(2.29568e-13 9.32368e-13 0)
(1.60939e-13 9.06642e-13 0)
(7.11252e-14 6.77241e-13 0)
(9.17137e-14 5.45005e-13 0)
(-1.65881e-14 4.81306e-13 0)
(-2.0858e-13 6.08383e-13 0)
(-2.11603e-13 5.99118e-13 0)
(-6.49302e-14 6.46868e-13 0)
(-2.21293e-14 7.0133e-13 0)
(-8.39138e-14 7.45973e-13 0)
(-1.70564e-13 6.07858e-13 0)
(-3.87623e-13 5.73763e-13 0)
(-5.21992e-13 6.5748e-13 0)
(-4.58092e-13 8.0896e-13 0)
(-5.1621e-13 8.58018e-13 0)
(-4.05894e-13 9.44609e-13 0)
(-3.50088e-14 9.38343e-13 0)
(5.46319e-14 1.04176e-12 0)
(9.42019e-14 1.00365e-12 0)
(2.16316e-13 8.75423e-13 0)
(3.47982e-13 7.95121e-13 0)
(2.40298e-13 9.03015e-13 0)
(1.52688e-13 8.20122e-13 0)
(4.79144e-13 9.29456e-13 0)
(3.67533e-13 8.67024e-13 0)
(1.77766e-13 7.80027e-13 0)
(-1.09345e-13 6.22973e-13 0)
(-1.76559e-13 4.48615e-13 0)
(9.83164e-14 2.91993e-13 0)
(2.07855e-13 3.78516e-13 0)
(1.00099e-13 5.12212e-13 0)
(-1.32168e-13 5.44691e-13 0)
(-7.89595e-14 5.67715e-13 0)
(-3.11926e-14 5.6793e-13 0)
(-6.10194e-14 5.36444e-13 0)
(-5.3192e-14 6.35996e-13 0)
(5.06219e-14 6.23652e-13 0)
(7.01624e-14 6.88994e-13 0)
(1.59405e-13 6.71661e-13 0)
(1.2194e-14 5.14223e-13 0)
(-1.25771e-13 4.16716e-13 0)
(-2.04625e-13 6.92233e-13 0)
(-3.9549e-13 9.08999e-13 0)
(-3.78345e-13 9.38253e-13 0)
(-4.19375e-13 9.19014e-13 0)
(-2.39781e-13 7.93749e-13 0)
(-4.9348e-14 8.70686e-13 0)
(1.30594e-13 8.14756e-13 0)
(4.4107e-13 7.7785e-13 0)
(3.02023e-13 7.60539e-13 0)
(1.68148e-13 7.73464e-13 0)
(1.12944e-13 7.38526e-13 0)
(-2.47006e-15 5.86413e-13 0)
(-1.27134e-14 3.06042e-13 0)
(-1.10884e-13 2.39884e-13 0)
(-2.2716e-13 4.05478e-13 0)
(-5.10738e-14 5.5302e-13 0)
(3.33689e-13 5.41957e-13 0)
(3.9201e-13 5.75805e-13 0)
(2.10112e-13 6.31045e-13 0)
(1.89339e-13 4.86485e-13 0)
(1.58889e-13 4.27576e-13 0)
(9.62325e-15 5.827e-13 0)
(1.93865e-14 7.19523e-13 0)
(5.49995e-14 6.92102e-13 0)
(-9.93958e-14 6.41645e-13 0)
(-9.87882e-14 6.07504e-13 0)
(-3.49335e-14 6.44849e-13 0)
(-6.76292e-14 6.261e-13 0)
(3.24255e-15 4.56127e-13 0)
(8.87088e-14 2.72051e-13 0)
(-1.12914e-13 3.38425e-13 0)
(-4.84114e-14 5.72834e-13 0)
(1.38985e-13 6.08591e-13 0)
(1.63869e-13 8.19081e-13 0)
(3.31831e-13 9.37315e-13 0)
(4.16138e-13 1.03598e-12 0)
(3.49329e-13 8.52513e-13 0)
(1.87987e-13 6.83729e-13 0)
(2.54592e-14 6.60655e-13 0)
(-2.16414e-13 6.43571e-13 0)
(-3.35064e-13 5.09847e-13 0)
(-3.13864e-13 4.96735e-13 0)
(-2.56196e-13 4.81725e-13 0)
(-1.49429e-13 3.97266e-13 0)
(-1.56065e-13 2.74983e-13 0)
(-2.78104e-13 2.78668e-13 0)
(-3.72883e-13 3.40437e-13 0)
(-2.02878e-13 4.27134e-13 0)
(-3.43783e-14 5.2415e-13 0)
(-3.99765e-14 6.3743e-13 0)
(5.04217e-14 6.1102e-13 0)
(4.65949e-14 6.39024e-13 0)
(7.81822e-14 6.78272e-13 0)
(1.84786e-13 5.69541e-13 0)
(1.97722e-13 3.35746e-13 0)
(8.31085e-14 3.20418e-13 0)
(8.51282e-14 5.46797e-13 0)
(-5.75365e-14 7.40773e-13 0)
(1.27219e-13 9.6159e-13 0)
(3.46615e-13 9.8501e-13 0)
(2.59433e-13 9.85585e-13 0)
(1.61703e-13 8.93399e-13 0)
(1.79425e-13 5.99603e-13 0)
(3.53117e-14 4.14429e-13 0)
(-1.23604e-13 6.49188e-13 0)
(-2.0543e-14 6.8077e-13 0)
(2.13487e-13 6.43803e-13 0)
(3.87612e-13 6.55405e-13 0)
(3.65967e-13 6.2372e-13 0)
(3.65456e-13 6.65657e-13 0)
(3.3106e-13 4.94267e-13 0)
(3.74488e-13 4.51069e-13 0)
(3.79396e-13 4.57193e-13 0)
(4.78192e-13 3.39494e-13 0)
(8.54509e-13 3.33355e-13 0)
(1.15259e-12 1.97743e-13 0)
(1.31666e-12 1.99216e-13 0)
(1.43475e-12 1.54444e-13 0)
(1.49903e-12 2.21171e-13 0)
(1.5184e-12 3.70878e-13 0)
(1.58901e-12 3.72526e-13 0)
(1.70456e-12 5.45611e-13 0)
(1.59478e-12 7.41158e-13 0)
(1.48285e-12 7.90596e-13 0)
(1.6492e-12 7.69787e-13 0)
(1.75848e-12 6.4887e-13 0)
(1.72122e-12 5.52267e-13 0)
(1.63261e-12 6.43035e-13 0)
(1.79876e-12 5.86585e-13 0)
(1.90567e-12 6.35105e-13 0)
(1.64907e-12 5.4707e-13 0)
(1.40553e-12 4.10296e-13 0)
(1.05151e-12 1.34895e-13 0)
(4.75463e-13 1.09943e-13 0)
(-1.60245e-13 2.17302e-13 0)
(-7.53391e-13 1.07885e-13 0)
(-1.26378e-12 3.15125e-13 0)
(-1.82296e-12 5.87861e-13 0)
(-2.44032e-12 6.18765e-13 0)
(-2.81165e-12 9.41336e-13 0)
(-1.81493e-13 2.30413e-13 0)
(-1.58777e-13 3.65107e-13 0)
(1.74678e-13 5.61718e-13 0)
(2.1658e-13 5.72447e-13 0)
(-1.19211e-13 5.74895e-13 0)
(-1.77854e-13 3.54822e-13 0)
(-3.33134e-13 3.30754e-13 0)
(-4.41117e-13 3.44193e-13 0)
(-3.38986e-13 2.59388e-13 0)
(-1.60163e-13 2.36292e-13 0)
(-1.21587e-14 2.66026e-13 0)
(7.4526e-14 3.24746e-13 0)
(1.09318e-13 2.54188e-13 0)
(2.08243e-13 3.17732e-13 0)
(1.29822e-13 3.85872e-13 0)
(1.98488e-14 4.52125e-13 0)
(1.74721e-13 3.1209e-13 0)
(2.47148e-13 2.02712e-13 0)
(1.85042e-13 1.59234e-13 0)
(1.11924e-13 2.4182e-13 0)
(-3.28052e-15 1.39691e-13 0)
(1.02715e-13 8.11312e-14 0)
(2.49427e-13 2.80918e-13 0)
(1.54387e-13 4.66815e-13 0)
(6.19434e-14 5.48768e-13 0)
(1.38562e-13 4.12312e-13 0)
(2.08008e-13 3.52105e-13 0)
(1.00336e-13 3.67056e-13 0)
(-5.26116e-14 2.88673e-13 0)
(5.00583e-14 2.09298e-13 0)
(7.33733e-15 3.18112e-13 0)
(-1.6841e-13 2.83685e-13 0)
(-1.74834e-13 3.11451e-13 0)
(-6.15112e-14 3.84011e-13 0)
(-2.44122e-14 3.32427e-13 0)
(-8.7107e-14 2.71719e-13 0)
(-2.39168e-13 3.50947e-13 0)
(-3.64628e-13 4.11039e-13 0)
(-3.42605e-13 3.97552e-13 0)
(-3.93246e-13 4.79327e-13 0)
(-4.26029e-13 5.73146e-13 0)
(-2.99561e-13 7.68402e-13 0)
(-3.17764e-14 8.81971e-13 0)
(1.36884e-13 9.83269e-13 0)
(2.14733e-13 9.58033e-13 0)
(1.98879e-13 9.54368e-13 0)
(2.52234e-13 1.05784e-12 0)
(1.73025e-13 8.83129e-13 0)
(1.36664e-13 7.46008e-13 0)
(2.94018e-13 6.57493e-13 0)
(2.45266e-13 4.70814e-13 0)
(1.33772e-13 4.75347e-13 0)
(-3.7458e-14 4.59763e-13 0)
(-1.94904e-13 6.24847e-13 0)
(2.45559e-14 4.71307e-13 0)
(1.63768e-13 4.37723e-13 0)
(-2.45348e-14 2.67191e-13 0)
(-1.47992e-13 2.73654e-13 0)
(-1.06817e-13 3.31204e-13 0)
(-6.5541e-14 1.92266e-13 0)
(-5.2365e-14 1.50129e-13 0)
(1.61141e-14 2.98131e-13 0)
(9.94696e-14 4.43914e-13 0)
(1.31123e-13 4.24874e-13 0)
(8.83834e-14 4.30512e-13 0)
(7.05383e-15 3.59551e-13 0)
(-7.18681e-14 5.00783e-13 0)
(-1.45426e-13 3.67835e-13 0)
(-2.58513e-13 5.82259e-13 0)
(-3.2167e-13 5.66934e-13 0)
(-3.80796e-13 6.78314e-13 0)
(-2.10602e-13 8.7865e-13 0)
(-2.30755e-14 7.61126e-13 0)
(4.87699e-14 7.30446e-13 0)
(2.02205e-13 6.00337e-13 0)
(2.43405e-13 3.75522e-13 0)
(1.65862e-13 3.12231e-13 0)
(5.75767e-14 3.96292e-13 0)
(-1.98002e-13 2.4098e-13 0)
(-1.5063e-13 6.28429e-14 0)
(3.32951e-14 1.23901e-13 0)
(-4.49519e-14 1.91158e-13 0)
(-7.10638e-15 3.89387e-13 0)
(2.22386e-13 4.63626e-13 0)
(3.51436e-13 2.93254e-13 0)
(2.26313e-13 1.94792e-13 0)
(1.34157e-13 2.16004e-13 0)
(1.80999e-13 1.94358e-13 0)
(1.57118e-13 3.26563e-13 0)
(7.03858e-14 3.7497e-13 0)
(1.62728e-14 1.90218e-13 0)
(-1.12599e-13 8.62695e-14 0)
(-9.39445e-14 7.53691e-14 0)
(-7.42787e-14 1.66735e-13 0)
(-1.80647e-13 7.34238e-14 0)
(-1.08431e-13 1.47868e-13 0)
(6.98023e-14 1.95563e-13 0)
(3.17391e-14 2.35431e-13 0)
(5.35241e-14 3.06607e-13 0)
(2.05076e-13 3.31371e-13 0)
(3.43008e-13 4.1268e-13 0)
(4.21541e-13 4.87988e-13 0)
(4.23836e-13 4.57328e-13 0)
(2.17526e-13 4.00764e-13 0)
(1.75261e-13 2.95769e-13 0)
(1.07365e-14 2.69544e-13 0)
(-2.6439e-13 3.32173e-13 0)
(-4.24739e-13 2.0168e-13 0)
(-3.59462e-13 1.72184e-13 0)
(-2.99488e-13 1.2727e-13 0)
(-2.30344e-13 1.05394e-13 0)
(-2.44457e-13 4.17518e-14 0)
(-2.7011e-13 1.23816e-13 0)
(-2.62487e-13 1.20435e-13 0)
(-1.56484e-13 2.12119e-13 0)
(-1.24e-14 2.13126e-13 0)
(9.64776e-15 2.82314e-13 0)
(-2.35276e-14 2.29645e-13 0)
(1.47736e-14 1.91823e-13 0)
(2.25552e-14 1.96543e-13 0)
(4.01833e-14 1.97047e-13 0)
(1.39098e-13 2.18627e-13 0)
(1.81363e-13 3.1718e-13 0)
(2.39684e-13 3.11919e-13 0)
(2.41937e-13 3.89812e-13 0)
(1.978e-13 6.58644e-13 0)
(2.61478e-13 4.49284e-13 0)
(2.55542e-13 3.99319e-13 0)
(6.68687e-14 3.84812e-13 0)
(6.48061e-15 2.68932e-13 0)
(5.35523e-14 1.43886e-13 0)
(-9.53154e-15 1.88819e-13 0)
(-9.011e-15 3.09672e-13 0)
(1.64231e-13 3.22055e-13 0)
(3.32524e-13 1.99068e-13 0)
(4.19772e-13 2.31913e-13 0)
(3.78223e-13 2.18149e-13 0)
(3.09029e-13 3.03095e-13 0)
(3.60677e-13 4.24625e-13 0)
(3.41511e-13 4.80746e-13 0)
(4.90689e-13 4.38679e-13 0)
(9.04706e-13 5.26073e-13 0)
(1.15783e-12 2.84238e-13 0)
(1.42483e-12 1.59923e-13 0)
(1.52439e-12 1.79977e-13 0)
(1.51301e-12 2.8677e-13 0)
(1.52974e-12 4.10948e-13 0)
(1.63508e-12 4.20065e-13 0)
(1.72258e-12 4.11555e-13 0)
(1.66007e-12 4.65448e-13 0)
(1.63007e-12 5.77515e-13 0)
(1.68692e-12 6.30539e-13 0)
(1.56387e-12 6.05687e-13 0)
(1.60445e-12 5.09021e-13 0)
(1.73439e-12 4.73573e-13 0)
(1.79654e-12 5.91965e-13 0)
(1.80564e-12 4.62631e-13 0)
(1.56163e-12 2.46492e-13 0)
(1.22035e-12 3.04756e-13 0)
(7.78762e-13 1.22861e-13 0)
(4.12073e-13 -2.59455e-14 0)
(-8.31024e-14 8.92968e-14 0)
(-6.36695e-13 1.53296e-13 0)
(-1.10888e-12 3.38506e-13 0)
(-1.75089e-12 4.89793e-13 0)
(-2.24667e-12 5.80264e-13 0)
(-2.54123e-12 7.76215e-13 0)
(-5.59394e-14 3.69681e-13 0)
(4.84513e-14 5.0617e-13 0)
(3.05253e-13 5.33819e-13 0)
(1.84495e-13 3.84253e-13 0)
(-1.54081e-13 3.61614e-13 0)
(-3.32858e-13 4.13845e-13 0)
(-4.04492e-13 3.31591e-13 0)
(-4.38999e-13 3.67568e-13 0)
(-3.08728e-13 4.49287e-13 0)
(-1.169e-13 4.9043e-13 0)
(2.21389e-14 5.15451e-13 0)
(5.49395e-14 5.70248e-13 0)
(1.26954e-13 5.30768e-13 0)
(1.85559e-13 5.35166e-13 0)
(1.89175e-13 5.42135e-13 0)
(3.63597e-14 5.50748e-13 0)
(-1.7743e-14 5.03618e-13 0)
(1.5065e-13 3.64885e-13 0)
(2.40589e-13 3.27502e-13 0)
(8.29974e-14 3.34862e-13 0)
(-6.24021e-14 3.54148e-13 0)
(1.94543e-13 4.08003e-13 0)
(2.84869e-13 3.80865e-13 0)
(1.65609e-13 3.5081e-13 0)
(8.94772e-14 3.12472e-13 0)
(1.10575e-13 3.8494e-13 0)
(2.54009e-13 4.09251e-13 0)
(1.06791e-13 3.67916e-13 0)
(-5.42114e-14 3.59158e-13 0)
(1.13641e-13 3.60379e-13 0)
(2.55731e-14 4.08523e-13 0)
(-2.12623e-13 3.8524e-13 0)
(-1.17274e-13 4.59234e-13 0)
(-4.64265e-14 5.01717e-13 0)
(-1.49869e-13 4.83847e-13 0)
(-5.14905e-14 4.25251e-13 0)
(-1.00616e-13 4.05414e-13 0)