/*--------------------------------*- C++ -*----------------------------------*\
  =========                 |
  \\      /  F ield         | OpenFOAM: The Open Source CFD Toolbox
   \\    /   O peration     | Website:  https://openfoam.org
    \\  /    A nd           | Version:  13
     \\/     M anipulation  |
\*---------------------------------------------------------------------------*/
FoamFile
{
    format      ascii;
    class       surfaceScalarField;
    location    "0.0006";
    object      phi;
}
// * * * * * * * * * * * * * * * * * * * * * * * * * * * * * * * * * * * * * //

dimensions      [1 0 -1 0 0 0 0];

internalField   nonuniform List<scalar> 
66301
(
7.77156e-16
0
5.55112e-16
-6.66134e-16
4.44089e-16
-5.55112e-16
4.44089e-16
-6.66134e-16
2.22045e-16
-5.55112e-16
1.11022e-16
-2.22045e-16
0
-2.22045e-16
4.44089e-16
2.22045e-16
3.33067e-16
-3.33067e-16
0
-2.22045e-16
0
-4.44089e-16
-3.33067e-16
-2.22045e-16
-8.88178e-16
-3.33067e-16
0
0
-2.22045e-16
-1.11022e-16
0
0
3.33067e-16
0
0
-4.44089e-16
9.99201e-16
-2.22045e-16
1.11022e-16
-6.66134e-16
4.44089e-16
1.11022e-16
3.33067e-16
-2.22045e-16
-2.22045e-16
-6.66134e-16
-3.33067e-16
-5.55112e-16
-3.33067e-16
-1.11022e-16
-4.44089e-16
0
-5.55112e-16
0
-1.11022e-16
2.22045e-16
4.44089e-16
0
-2.22045e-16
-1.11022e-16
-2.22045e-16
-3.33067e-16
-3.33067e-16
-3.33067e-16
-4.44089e-16
-3.33067e-16
-8.88178e-16
-4.44089e-16
1.11022e-16
0
6.66134e-16
0
-1.11022e-16
-1.11022e-16
-5.55112e-16
-1.11022e-16
-1.11022e-16
0
1.11022e-16
1.11022e-16
0
2.22045e-16
2.22045e-16
2.22045e-16
1.11022e-16
1.11022e-16
2.22045e-16
3.33067e-16
8.88178e-16
2.22045e-16
2.22045e-16
3.33067e-16
2.22045e-16
-4.44089e-16
6.66134e-16
0
3.33067e-16
-2.22045e-16
-3.33067e-16
-2.22045e-16
-1.11022e-16
-5.55112e-16
-5.55112e-16
-3.33067e-16
0
-1.11022e-16
2.37832e-12
1.11022e-16
5.06844e-09
1.9984e-14
1.26494e-06
6.84242e-12
5.39973e-05
3.34109e-10
0.000615513
4.36819e-09
0.00293404
2.34521e-08
0.00829462
7.21003e-08
0.0172392
1.58454e-07
0.0296404
2.82225e-07
0.0449903
4.37701e-07
0.0626266
6.17167e-07
0.0818832
8.12975e-07
0.102167
1.0185e-06
0.122988
1.22844e-06
0.143962
1.43884e-06
0.164794
1.64713e-06
0.185262
1.85241e-06
0.205195
2.05246e-06
0.224453
2.24613e-06
0.242904
2.44171e-06
0.260403
2.63435e-06
0.276753
2.82565e-06
0.291687
3.02261e-06
0.304844
3.2271e-06
0.315815
3.4765e-06
0.32425
3.74923e-06
0.330039
4.0409e-06
0.333445
4.32978e-06
0.335081
4.76724e-06
0.335656
5.12223e-06
0.335674
5.46219e-06
0.335401
4.52336e-06
0.334877
4.6185e-06
0.334286
4.99779e-06
0.333829
4.9112e-06
0.333571
4.80013e-06
0.333456
4.85675e-06
0.33338
5.25825e-06
0.333261
4.15403e-06
0.333045
4.90276e-06
0.33283
5.36521e-06
0.332723
4.62138e-06
0.332694
7.65815e-06
0.332668
3.31945e-06
0.332509
3.82418e-06
0.332226
3.7127e-06
0.332044
4.28703e-06
0.331992
3.96816e-06
0.331925
4.72309e-06
0.331682
2.78763e-06
0.331204
1.87177e-06
0.330912
8.44747e-07
0.331509
-9.16201e-07
0.333618
-3.65908e-06
0.339574
-7.43321e-06
0.354659
-1.05988e-05
0.385621
-1.19437e-05
0.441352
-1.28085e-05
0.527085
-1.34008e-05
0.631182
-1.16215e-05
0.718359
-7.47321e-06
0.766505
-6.20416e-06
0.77566
-3.63264e-06
0.775938
-3.99267e-06
0.77435
-5.03363e-06
0.771289
-5.76148e-06
0.767575
-6.76675e-06
0.764656
-8.51049e-06
0.763647
-7.46718e-06
0.763326
-6.62126e-06
0.762856
-6.64613e-06
0.760836
-6.41413e-06
0.752626
-6.11904e-06
0.725312
-5.95024e-06
0.645679
-5.74043e-06
0.451284
-5.0486e-06
0.161656
-2.92794e-06
0.0148788
-7.39465e-07
0.000202434
-5.27087e-08
2.75837e-07
-6.65095e-10
2.92347e-11
-6.24001e-13
2.60902e-15
-8.32667e-16
-1.66533e-16
4.996e-16
-1.11022e-16
2.22045e-16
0
2.77556e-16
4.44089e-16
1.66533e-16
4.44089e-16
5.55112e-17
-5.55112e-17
-2.22045e-16
-2.77556e-16
-2.22045e-16
5.55112e-17
5.55112e-17
4.996e-16
-1.11022e-16
1.11022e-16
-3.88578e-16
-3.88578e-16
-1.11022e-16
1.11022e-16
2.22045e-16
1.11022e-16
5.55112e-17
2.77556e-16
1.11022e-16
0
-1.66533e-16
-1.66533e-16
-5.55112e-17
0
1.11022e-16
-3.33067e-16
-2.77556e-16
5.55112e-17
1.11022e-16
3.88578e-16
0
-5.55112e-17
-3.88578e-16
-3.33067e-16
-2.77556e-16
-3.33067e-16
-2.77556e-16
0
-1.66533e-16
-3.88578e-16
-2.77556e-16
2.77556e-16
-5.55112e-17
1.11022e-16
-2.22045e-16
-1.66533e-16
-2.77556e-16
5.55112e-17
2.22045e-16
1.11022e-16
2.22045e-16
0
3.33067e-16
1.11022e-16
2.22045e-16
3.33067e-16
4.44089e-16
0
4.44089e-16
-1.11022e-16
4.44089e-16
1.11022e-16
3.33067e-16
-1.11022e-16
2.22045e-16
-2.22045e-16
3.33067e-16
0
6.66134e-16
0
-3.33067e-16
-1.11022e-16
3.33067e-16
1.11022e-16
-1.11022e-16
-1.11022e-16
-5.55112e-16
-2.22045e-16
-1.11022e-16
4.44089e-16
-3.33067e-16
-1.11022e-16
0
-3.33067e-16
0
-3.33067e-16
2.22045e-16
-2.22045e-16
4.44089e-16
0
5.55112e-16
-3.33067e-16
2.22045e-16
-4.44089e-16
-4.44089e-16
-1.11022e-16
-1.11022e-16
2.22045e-16
1.11022e-16
-1.11022e-16
-4.44089e-16
-4.44089e-16
-4.44089e-16
-1.11022e-16
-5.55112e-16
-1.11022e-16
-3.33067e-16
-2.22045e-16
3.33067e-16
2.22045e-16
-2.22045e-16
-2.22045e-16
-2.22045e-16
-4.44089e-16
-4.44089e-16
-2.22045e-16
-4.44089e-16
-3.33067e-16
-4.44089e-16
0
2.22045e-16
4.44089e-16
3.33067e-16
0
-1.11022e-16
-6.66134e-16
-3.33067e-16
-3.33067e-16
0
1.11022e-16
1.11022e-16
1.11022e-16
0
0
2.22045e-16
2.22045e-16
0
0
-1.11022e-16
-2.22045e-16
7.77156e-16
2.22045e-16
2.22045e-16
-3.33067e-16
3.33067e-16
-4.44089e-16
2.22045e-16
-5.55112e-16
1.11022e-16
-3.33067e-16
-5.55112e-16
-5.55112e-16
0
-3.33067e-16
0
-1.11022e-16
-1.11022e-16
-2.22045e-16
2.37899e-12
1.11022e-16
5.06867e-09
1.18794e-14
1.26499e-06
3.50731e-12
5.3999e-05
1.91064e-10
0.000615529
2.77626e-09
0.00293411
1.61433e-08
0.00829481
5.29496e-08
0.0172396
1.22623e-07
0.0296411
2.2773e-07
0.0449916
3.65099e-07
0.0626286
5.28563e-07
0.0818861
7.11162e-07
0.102171
9.0642e-07
0.122993
1.10893e-06
0.143968
1.31452e-06
0.164803
1.5203e-06
0.185273
1.72505e-06
0.205208
1.92916e-06
0.224468
2.12036e-06
0.242922
2.31323e-06
0.260423
2.50664e-06
0.276776
2.7111e-06
0.291713
2.94469e-06
0.304873
3.13075e-06
0.315848
3.37827e-06
0.324287
3.66873e-06
0.33008
3.97147e-06
0.33349
4.28989e-06
0.335132
4.6814e-06
0.335712
4.94338e-06
0.335732
5.67435e-06
0.335464
4.26599e-06
0.334948
4.69439e-06
0.334361
5.01505e-06
0.333909
4.92397e-06
0.333655
4.70938e-06
0.333545
4.62484e-06
0.333475
5.25799e-06
0.33336
3.991e-06
0.333149
4.82789e-06
0.332939
5.08385e-06
0.332837
4.6432e-06
0.332815
6.19933e-06
0.332794
2.96737e-06
0.33264
3.69028e-06
0.332361
3.66923e-06
0.332183
3.86053e-06
0.332136
3.42309e-06
0.332073
4.23837e-06
0.331834
1.75439e-06
0.331359
1.39267e-06
0.331068
1.08561e-06
0.331663
-1.03763e-06
0.333767
-2.54226e-06
0.339712
-5.33487e-06
0.35478
-7.47504e-06
0.385723
-8.67331e-06
0.441435
-1.06916e-05
0.527152
-1.38845e-05
0.631244
-1.57819e-05
0.718431
-1.63929e-05
0.766593
-1.61845e-05
0.77575
-7.51562e-06
0.776028
-6.41304e-06
0.774435
-6.01303e-06
0.771368
-5.91381e-06
0.767647
-6.93035e-06
0.764721
-7.66193e-06
0.763702
-6.51148e-06
0.763373
-6.15552e-06
0.762897
-5.93341e-06
0.760869
-5.70226e-06
0.752651
-5.52918e-06
0.72533
-5.43477e-06
0.645692
-5.16112e-06
0.451291
-4.02482e-06
0.161659
-2.02368e-06
0.0148792
-4.52524e-07
0.000202442
-2.72296e-08
2.7585e-07
-2.78832e-10
2.92372e-11
-3.13638e-13
2.66454e-15
-2.77556e-16
-5.55112e-17
1.66533e-16
1.11022e-16
4.44089e-16
-1.11022e-16
0
3.33067e-16
-2.22045e-16
3.33067e-16
-4.44089e-16
-1.66533e-16
-5.55112e-16
-1.66533e-16
-4.44089e-16
-3.33067e-16
-1.66533e-16
2.22045e-16
-5.55112e-17
3.33067e-16
-5.55112e-17
-5.55112e-17
-2.77556e-16
1.66533e-16
-3.88578e-16
1.11022e-16
-4.996e-16
1.11022e-16
-4.44089e-16
1.11022e-16
-3.88578e-16
-3.33067e-16
-4.996e-16
-1.11022e-16
-6.10623e-16
0
-5.55112e-16
0
-3.33067e-16
0
-6.10623e-16
0
-6.10623e-16
-2.77556e-16
-4.996e-16
0
-3.33067e-16
-2.22045e-16
-4.996e-16
-1.66533e-16
-1.11022e-16
3.88578e-16
-1.66533e-16
1.66533e-16
-3.33067e-16
1.66533e-16
-3.88578e-16
5.55112e-17
-2.77556e-16
-2.77556e-16
-3.33067e-16
-4.44089e-16
4.44089e-16
4.44089e-16
2.22045e-16
-1.11022e-16
-1.11022e-16
-5.55112e-16
1.11022e-15
2.22045e-16
3.33067e-16
-1.11022e-16
3.33067e-16
-3.33067e-16
4.44089e-16
3.33067e-16
4.44089e-16
3.33067e-16
5.55112e-16
-1.11022e-16
1.11022e-16
-1.11022e-16
0
1.11022e-16
-3.33067e-16
5.55112e-16
0
3.33067e-16
-3.33067e-16
-1.11022e-16
-2.22045e-16
-4.44089e-16
0
0
-1.11022e-16
-1.11022e-16
3.33067e-16
-1.11022e-16
1.11022e-16
-1.11022e-16
5.55112e-16
-3.33067e-16
3.33067e-16
-5.55112e-16
-4.44089e-16
-5.55112e-16
-4.44089e-16
0
-1.11022e-16
-1.11022e-16
-3.33067e-16
-1.11022e-16
-4.44089e-16
-4.44089e-16
-5.55112e-16
-3.33067e-16
-2.22045e-16
-2.22045e-16
-3.33067e-16
1.11022e-16
-3.33067e-16
0
-4.44089e-16
0
-3.33067e-16
3.33067e-16
1.11022e-16
3.33067e-16
-4.44089e-16
2.22045e-16
-1.11022e-16
3.33067e-16
2.22045e-16
1.11022e-16
1.11022e-16
2.22045e-16
-1.11022e-16
2.22045e-16
3.33067e-16
2.22045e-16
0
0
0
6.66134e-16
0
3.33067e-16
1.11022e-16
5.55112e-16
2.22045e-16
6.66134e-16
3.33067e-16
6.66134e-16
2.22045e-16
2.22045e-16
2.22045e-16
3.33067e-16
5.55112e-16
0
0
-1.11022e-16
0
1.11022e-16
3.33067e-16
4.44089e-16
-1.11022e-16
2.22045e-16
0
2.22045e-16
2.37943e-12
5.55112e-16
5.06893e-09
7.21645e-15
1.26504e-06
2.45648e-12
5.40002e-05
1.39834e-10
0.000615538
2.07338e-09
0.00293414
1.22862e-08
0.00829486
4.12718e-08
0.0172397
9.82013e-08
0.0296412
1.87298e-07
0.0449917
3.0744e-07
0.0626287
4.53964e-07
0.0818862
6.20845e-07
0.102171
8.02142e-07
0.122993
9.92702e-07
0.143969
1.18843e-06
0.164803
1.38633e-06
0.185273
1.58435e-06
0.205208
1.78214e-06
0.224468
1.97391e-06
0.242922
2.16466e-06
0.260423
2.35954e-06
0.276776
2.56476e-06
0.291713
2.7874e-06
0.304873
3.00074e-06
0.315848
3.23791e-06
0.324287
3.51784e-06
0.33008
3.81959e-06
0.33349
4.12678e-06
0.335132
4.42338e-06
0.335712
4.67674e-06
0.335732
4.91342e-06
0.335465
4.70342e-06
0.334948
4.58526e-06
0.334361
4.57458e-06
0.333909
4.73355e-06
0.333655
4.65124e-06
0.333545
4.43905e-06
0.333475
5.01366e-06
0.33336
3.9703e-06
0.333149
4.55839e-06
0.332939
4.61549e-06
0.332838
4.39142e-06
0.332815
5.0852e-06
0.332794
3.30333e-06
0.33264
3.51992e-06
0.332361
3.3797e-06
0.332183
3.33516e-06
0.332136
2.83126e-06
0.332073
3.35178e-06
0.331834
1.53478e-06
0.331359
1.05876e-06
0.331068
1.08648e-06
0.331663
-1.19889e-06
0.333767
-2.25333e-06
0.339711
-4.46178e-06
0.354778
-6.46441e-06
0.38572
-7.8815e-06
0.441429
-1.02723e-05
0.527144
-1.33101e-05
0.63124
-1.60711e-05
0.718432
-1.86641e-05
0.766595
-1.65372e-05
0.775751
-8.40167e-06
0.776029
-7.3912e-06
0.774435
-6.8481e-06
0.771368
-6.55377e-06
0.767646
-6.88365e-06
0.76472
-6.74382e-06
0.763702
-6.07726e-06
0.763373
-5.79974e-06
0.762896
-5.55725e-06
0.760868
-5.37683e-06
0.75265
-5.22053e-06
0.72533
-5.00785e-06
0.645691
-4.58903e-06
0.451292
-3.48877e-06
0.161661
-1.76323e-06
0.0148796
-3.87065e-07
0.000202449
-2.25299e-08
2.75865e-07
-2.15355e-10
2.92396e-11
-2.17049e-13
2.94209e-15
-6.66134e-16
-2.22045e-16
-3.33067e-16
-3.33067e-16
-2.77556e-16
-6.10623e-16
-2.22045e-16
0
0
5.55112e-17
0
0
-2.77556e-16
3.33067e-16
-5.55112e-17
-1.11022e-16
-2.22045e-16
1.66533e-16
0
1.11022e-16
-2.22045e-16
-4.44089e-16
-2.22045e-16
0
5.55112e-17
0
-1.11022e-16
1.66533e-16
-4.44089e-16
1.11022e-16
-4.996e-16
-2.77556e-16
-6.66134e-16
-2.77556e-16
-7.77156e-16
0
-8.32667e-16
-5.55112e-17
-8.88178e-16
-2.77556e-16
-5.55112e-16
1.11022e-16
-3.88578e-16
5.55112e-17
-1.05471e-15
-2.22045e-16
-9.99201e-16
1.11022e-16
-2.22045e-16
-3.33067e-16
-5.55112e-16
3.33067e-16
-2.22045e-16
2.77556e-16
-6.66134e-16
3.33067e-16
-8.32667e-16
-1.11022e-16
-6.10623e-16
-4.44089e-16
-3.88578e-16
-3.88578e-16
0
2.22045e-16
1.11022e-16
2.22045e-16
3.33067e-16
0
7.77156e-16
-3.33067e-16
1.11022e-16
-5.55112e-16
6.66134e-16
-1.11022e-16
3.33067e-16
-3.33067e-16
2.22045e-16
0
4.44089e-16
0
1.11022e-16
0
-1.11022e-16
-1.11022e-16
-5.55112e-16
-2.22045e-16
-3.33067e-16
3.33067e-16
-5.55112e-16
0
-2.22045e-16
1.11022e-16
-1.11022e-16
-1.11022e-16
1.11022e-16
2.22045e-16
2.22045e-16
1.11022e-16
0
0
2.22045e-16
0
2.22045e-16
0
2.22045e-16
-3.33067e-16
-2.22045e-16
0
-2.22045e-16
1.11022e-16
-4.44089e-16
0
-3.33067e-16
0
-3.33067e-16
1.11022e-16
0
2.22045e-16
-3.33067e-16
-1.11022e-16
-1.11022e-16
3.33067e-16
-4.44089e-16
0
-3.33067e-16
3.33067e-16
0
3.33067e-16
-1.11022e-16
4.44089e-16
-1.11022e-16
1.11022e-16
1.11022e-16
2.22045e-16
1.11022e-16
3.33067e-16
-1.11022e-16
1.11022e-16
0
5.55112e-16
0
6.66134e-16
1.11022e-16
5.55112e-16
3.33067e-16
6.66134e-16
3.33067e-16
5.55112e-16
2.22045e-16
5.55112e-16
-2.22045e-16
2.22045e-16
0
3.33067e-16
2.22045e-16
2.22045e-16
5.55112e-16
3.33067e-16
4.44089e-16
3.33067e-16
0
1.11022e-16
0
3.33067e-16
0
2.22045e-16
0
3.33067e-16
2.37854e-12
2.22045e-16
5.06913e-09
4.88498e-15
1.26507e-06
1.87073e-12
5.40012e-05
1.08917e-10
0.000615546
1.64251e-09
0.00293416
9.86895e-09
0.00829491
3.36025e-08
0.0172398
8.11001e-08
0.0296413
1.56984e-07
0.0449918
2.61448e-07
0.0626288
3.91316e-07
0.0818864
5.41751e-07
0.102171
7.07572e-07
0.122993
8.83999e-07
0.143969
1.06704e-06
0.164803
1.25363e-06
0.185273
1.44149e-06
0.205208
1.62899e-06
0.224468
1.81495e-06
0.242922
1.9992e-06
0.260423
2.18738e-06
0.276777
2.38579e-06
0.291713
2.6014e-06
0.304874
2.82724e-06
0.315848
3.06722e-06
0.324287
3.33784e-06
0.33008
3.63205e-06
0.33349
3.93048e-06
0.335132
4.19465e-06
0.335712
4.40913e-06
0.335732
4.52411e-06
0.335465
4.64942e-06
0.334948
4.44353e-06
0.334361
4.39993e-06
0.333909
4.48521e-06
0.333655
4.48335e-06
0.333545
4.28801e-06
0.333475
4.63949e-06
0.33336
3.99012e-06
0.333149
4.29287e-06
0.332939
4.15344e-06
0.332837
4.12532e-06
0.332814
4.24388e-06
0.332794
3.31674e-06
0.33264
3.25978e-06
0.332361
3.06571e-06
0.332183
2.83756e-06
0.332135
2.40392e-06
0.332073
2.61352e-06
0.331833
1.02822e-06
0.331358
6.48841e-07
0.331067
7.23009e-07
0.331662
-1.40202e-06
0.333766
-2.02043e-06
0.33971
-3.83895e-06
0.354776
-5.68359e-06
0.385716
-7.24371e-06
0.441422
-9.65949e-06
0.527136
-1.1952e-05
0.631233
-1.42494e-05
0.718429
-1.59285e-05
0.766596
-1.36876e-05
0.775752
-8.42234e-06
0.77603
-7.64622e-06
0.774434
-7.0626e-06
0.771367
-6.81365e-06
0.767646
-6.67845e-06
0.76472
-6.27869e-06
0.763702
-5.82233e-06
0.763373
-5.56109e-06
0.762896
-5.34395e-06
0.760868
-5.14821e-06
0.75265
-4.94691e-06
0.725329
-4.73099e-06
0.645691
-4.31373e-06
0.451293
-3.32175e-06
0.161663
-1.70478e-06
0.0148799
-3.73095e-07
0.000202456
-2.16815e-08
2.75879e-07
-2.06664e-10
2.92415e-11
-2.05114e-13
3.05311e-15
-4.996e-16
-3.33067e-16
0
-2.77556e-16
-6.66134e-16
-2.22045e-16
-4.44089e-16
1.11022e-16
-1.66533e-16
-5.55112e-17
-1.11022e-16
5.55112e-17
0
1.11022e-16
-3.88578e-16
5.55112e-17
-6.66134e-16
5.55112e-17
-4.996e-16
2.22045e-16
-7.21645e-16
0
-4.996e-16
-1.66533e-16
-2.22045e-16
-3.33067e-16
-1.66533e-16
-5.55112e-17
-4.44089e-16
0
-6.66134e-16
-3.88578e-16
-8.32667e-16
-3.33067e-16
-5.55112e-16
0
-4.996e-16
3.88578e-16
-6.10623e-16
-5.55112e-17
-7.21645e-16
-3.33067e-16
-1.11022e-15
-5.55112e-17
-8.32667e-16
2.22045e-16
-8.88178e-16
-5.55112e-17
-7.77156e-16
5.55112e-17
-8.88178e-16
0
-1.05471e-15
0
-8.32667e-16
6.10623e-16
-7.77156e-16
1.66533e-16
-8.32667e-16
-2.77556e-16
-7.21645e-16
-3.33067e-16
-1.11022e-16
3.33067e-16
-2.22045e-16
-2.22045e-16
4.44089e-16
2.22045e-16
5.55112e-16
0
7.77156e-16
2.22045e-16
4.44089e-16
1.11022e-16
3.33067e-16
3.33067e-16
2.22045e-16
1.11022e-16
3.33067e-16
2.22045e-16
3.33067e-16
1.11022e-16
0
0
-2.22045e-16
0
-5.55112e-16
3.33067e-16
-2.22045e-16
5.55112e-16
-2.22045e-16
3.33067e-16
2.22045e-16
4.44089e-16
0
4.44089e-16
-1.11022e-16
4.44089e-16
1.11022e-16
0
1.11022e-16
-2.22045e-16
1.11022e-16
2.22045e-16
0
3.33067e-16
-2.22045e-16
3.33067e-16
-3.33067e-16
0
-4.44089e-16
0
-6.66134e-16
2.22045e-16
-5.55112e-16
-2.22045e-16
-2.22045e-16
0
3.33067e-16
2.22045e-16
-2.22045e-16
-3.33067e-16
-2.22045e-16
-3.33067e-16
-3.33067e-16
-2.22045e-16
3.33067e-16
3.33067e-16
-6.66134e-16
-2.22045e-16
0
3.33067e-16
2.22045e-16
2.22045e-16
2.22045e-16
5.55112e-16
2.22045e-16
2.22045e-16
3.33067e-16
4.44089e-16
1.11022e-16
6.66134e-16
0
3.33067e-16
3.33067e-16
3.33067e-16
1.11022e-16
5.55112e-16
1.11022e-16
6.66134e-16
0
1.11022e-16
-2.22045e-16
0
0
4.44089e-16
3.33067e-16
3.33067e-16
-1.11022e-16
1.11022e-16
2.22045e-16
-3.33067e-16
-2.22045e-16
1.11022e-16
-2.22045e-16
4.44089e-16
0
6.66134e-16
2.37976e-12
2.22045e-16
5.06928e-09
4.21885e-15
1.2651e-06
1.385e-12
5.4002e-05
8.20414e-11
0.000615552
1.26186e-09
0.00293418
7.74545e-09
0.00829496
2.69278e-08
0.0172399
6.62555e-08
0.0296414
1.30536e-07
0.0449919
2.20934e-07
0.062629
3.35483e-07
0.0818865
4.7035e-07
0.102171
6.21042e-07
0.122993
7.83201e-07
0.143969
9.53054e-07
0.164803
1.1276e-06
0.185273
1.30448e-06
0.205208
1.48199e-06
0.224468
1.65929e-06
0.242922
1.83623e-06
0.260423
2.01635e-06
0.276777
2.20601e-06
0.291713
2.41169e-06
0.304874
2.63631e-06
0.315848
2.87834e-06
0.324287
3.14241e-06
0.33008
3.42462e-06
0.33349
3.70894e-06
0.335132
3.95595e-06
0.335712
4.15583e-06
0.335732
4.2839e-06
0.335464
4.40939e-06
0.334948
4.30777e-06
0.334361
4.24562e-06
0.333909
4.2546e-06
0.333655
4.25062e-06
0.333545
4.13888e-06
0.333475
4.20649e-06
0.33336
3.98406e-06
0.333149
4.01413e-06
0.332939
3.78447e-06
0.332837
3.74194e-06
0.332814
3.73506e-06
0.332793
3.11563e-06
0.33264
2.95435e-06
0.332361
2.71459e-06
0.332182
2.44153e-06
0.332135
1.94456e-06
0.332072
2.07008e-06
0.331833
6.69917e-07
0.331358
2.69122e-07
0.331066
2.74962e-07
0.331662
-1.53994e-06
0.333765
-1.96866e-06
0.33971
-3.57827e-06
0.354775
-5.23462e-06
0.385714
-6.6183e-06
0.441419
-8.32596e-06
0.527132
-9.52404e-06
0.63123
-1.15322e-05
0.718427
-1.25494e-05
0.766598
-1.11611e-05
0.775753
-7.99585e-06
0.77603
-7.47284e-06
0.774434
-7.00334e-06
0.771367
-6.73526e-06
0.767646
-6.43819e-06
0.76472
-6.00547e-06
0.763702
-5.58489e-06
0.763373
-5.34813e-06
0.762896
-5.151e-06
0.760868
-4.96501e-06
0.75265
-4.76663e-06
0.725329
-4.53318e-06
0.645692
-4.0987e-06
0.451295
-3.17596e-06
0.161664
-1.6249e-06
0.0148802
-3.5435e-07
0.000202463
-2.05725e-08
2.75892e-07
-1.96602e-10
2.92436e-11
-1.9712e-13
2.72005e-15
-1.66533e-16
-3.33067e-16
-4.44089e-16
1.11022e-16
-4.44089e-16
5.55112e-17
-8.88178e-16
5.55112e-17
-4.996e-16
-5.55112e-17
-4.996e-16
-2.22045e-16
-5.55112e-16
-1.66533e-16
-4.44089e-16
5.55112e-17
-6.66134e-16
-2.22045e-16
-9.4369e-16
1.66533e-16
-6.10623e-16
3.88578e-16
-5.55112e-16
-5.55112e-17
-4.996e-16
-6.66134e-16
-5.55112e-16
-2.77556e-16
-3.88578e-16
-1.66533e-16
-3.88578e-16
-2.22045e-16
-2.22045e-16
-2.77556e-16
-1.66533e-16
0
-1.66533e-16
2.22045e-16
-2.22045e-16
-4.996e-16
-4.44089e-16
-5.55112e-17
-6.10623e-16
0
-4.44089e-16
1.11022e-16
-1.66533e-16
-5.55112e-17
-3.88578e-16
0
-2.77556e-16
2.77556e-16
-3.88578e-16
0
-1.66533e-16
4.996e-16
-3.88578e-16
3.33067e-16
-7.21645e-16
5.55112e-17
-7.77156e-16
-5.55112e-16
-3.33067e-16
1.11022e-16
1.11022e-16
4.44089e-16
1.11022e-16
2.22045e-16
5.55112e-16
1.11022e-16
4.44089e-16
1.11022e-16
4.44089e-16
2.22045e-16
5.55112e-16
2.22045e-16
5.55112e-16
0
1.11022e-16
-1.11022e-16
2.22045e-16
2.22045e-16
1.11022e-16
-3.33067e-16
0
-2.22045e-16
-1.11022e-16
-3.33067e-16
-4.44089e-16
1.11022e-16
-3.33067e-16
3.33067e-16
0
3.33067e-16
0
-1.11022e-16
0
1.11022e-16
3.33067e-16
3.33067e-16
4.44089e-16
7.77156e-16
1.11022e-16
3.33067e-16
1.11022e-16
1.11022e-16
-6.66134e-16
-3.33067e-16
-1.11022e-16
3.33067e-16
-3.33067e-16
3.33067e-16
-8.88178e-16
-2.22045e-16
-1.11022e-16
4.44089e-16
0
0
-3.33067e-16
0
-3.33067e-16
1.11022e-16
-1.11022e-16
4.44089e-16
-1.11022e-16
5.55112e-16
0
4.44089e-16
-1.11022e-16
3.33067e-16
1.11022e-16
3.33067e-16
3.33067e-16
2.22045e-16
2.22045e-16
1.11022e-16
3.33067e-16
1.11022e-16
1.11022e-16
5.55112e-16
2.22045e-16
6.66134e-16
2.22045e-16
3.33067e-16
1.11022e-16
4.44089e-16
0
4.44089e-16
-1.11022e-16
2.22045e-16
-1.11022e-16
2.22045e-16
-1.11022e-16
4.44089e-16
1.11022e-16
3.33067e-16
1.11022e-16
4.44089e-16
-2.22045e-16
4.44089e-16
7.77156e-16
4.44089e-16
-1.11022e-16
2.22045e-16
-3.33067e-16
-1.11022e-16
-2.22045e-16
2.22045e-16
2.37954e-12
0
5.0694e-09
4.32987e-15
1.26512e-06
9.72222e-13
5.40027e-05
5.87826e-11
0.000615558
9.27274e-10
0.0029342
5.85618e-09
0.008295
2.09374e-08
0.0172399
5.28251e-08
0.0296415
1.06369e-07
0.0449921
1.83474e-07
0.0626291
2.83243e-07
0.0818867
4.02857e-07
0.102171
5.38581e-07
0.122994
6.86544e-07
0.143969
8.43227e-07
0.164803
1.00572e-06
0.185273
1.17164e-06
0.205208
1.33927e-06
0.224468
1.50762e-06
0.242922
1.6768e-06
0.260423
1.84903e-06
0.276777
2.0297e-06
0.291713
2.22558e-06
0.304874
2.44266e-06
0.315848
2.68169e-06
0.324287
2.94065e-06
0.33008
3.21275e-06
0.33349
3.48473e-06
0.335132
3.72286e-06
0.335712
3.90687e-06
0.335732
4.07467e-06
0.335464
4.18661e-06
0.334948
4.12976e-06
0.334361
4.0804e-06
0.333909
4.06365e-06
0.333655
4.02868e-06
0.333545
3.97467e-06
0.333475
3.83239e-06
0.33336
3.89385e-06
0.333149
3.71245e-06
0.332939
3.49737e-06
0.332837
3.39133e-06
0.332814
3.40108e-06
0.332793
2.81504e-06
0.33264
2.67529e-06
0.33236
2.41733e-06
0.332182
2.15384e-06
0.332134
1.5561e-06
0.332071
1.6703e-06
0.331832
3.54188e-07
0.331357
-2.3514e-08
0.331065
-6.50588e-08
0.33166
-1.63431e-06
0.333764
-2.00466e-06
0.339708
-3.36594e-06
0.354774
-4.65582e-06
0.385713
-5.83742e-06
0.441418
-7.07924e-06
0.527132
-7.67771e-06
0.63123
-9.14617e-06
0.718428
-9.85814e-06
0.7666
-9.03966e-06
0.775754
-7.32794e-06
0.776031
-7.04093e-06
0.774435
-6.70632e-06
0.771367
-6.47303e-06
0.767646
-6.17789e-06
0.76472
-5.76137e-06
0.763702
-5.32735e-06
0.763373
-5.10108e-06
0.762896
-4.92121e-06
0.760868
-4.74684e-06
0.75265
-4.556e-06
0.72533
-4.31103e-06
0.645693
-3.87436e-06
0.451297
-2.98523e-06
0.161666
-1.51938e-06
0.0148804
-3.30217e-07
0.000202469
-1.91364e-08
2.75904e-07
-1.82708e-10
2.92449e-11
-1.83242e-13
2.77556e-15
-3.88578e-16
-2.77556e-16
-6.66134e-16
-2.77556e-16
-4.44089e-16
2.77556e-16
-4.996e-16
1.11022e-16
-4.996e-16
5.55112e-17
-4.44089e-16
-1.66533e-16
-6.10623e-16
-2.22045e-16
-7.21645e-16
-1.66533e-16
-8.32667e-16
-1.66533e-16
-8.88178e-16
4.44089e-16
-7.77156e-16
3.88578e-16
-6.10623e-16
-5.55112e-17
-3.88578e-16
-5.55112e-16
-6.66134e-16
-1.66533e-16
-3.88578e-16
0
-1.66533e-16
-5.55112e-17
-1.11022e-16
-2.77556e-16
-5.55112e-17
-1.11022e-16
1.11022e-16
-1.11022e-16
-2.77556e-16
-5.55112e-16
-6.10623e-16
0
-4.44089e-16
0
-3.88578e-16
0
-2.77556e-16
0
-3.33067e-16
-1.11022e-16
-3.33067e-16
2.77556e-16
-2.22045e-16
0
-2.77556e-16
3.88578e-16
-2.77556e-16
2.22045e-16
-6.66134e-16
2.77556e-16
-4.996e-16
-7.21645e-16
1.11022e-16
0
0
2.22045e-16
2.22045e-16
3.33067e-16
2.22045e-16
-2.22045e-16
5.55112e-16
-1.11022e-16
6.66134e-16
1.11022e-16
2.22045e-16
-1.11022e-16
2.22045e-16
1.11022e-16
4.44089e-16
2.22045e-16
0
0
0
3.33067e-16
1.11022e-16
1.11022e-16
4.44089e-16
0
-2.22045e-16
-2.22045e-16
-2.22045e-16
0
-2.22045e-16
-1.11022e-16
2.22045e-16
2.22045e-16
-1.11022e-16
5.55112e-16
8.88178e-16
6.66134e-16
2.22045e-16
3.33067e-16
1.11022e-16
3.33067e-16
-3.33067e-16
0
-1.11022e-16
1.11022e-16
-1.11022e-16
2.22045e-16
-5.55112e-16
0
-5.55112e-16
4.44089e-16
-3.33067e-16
5.55112e-16
-1.11022e-16
4.44089e-16
1.11022e-16
5.55112e-16
-2.22045e-16
6.66134e-16
3.33067e-16
3.33067e-16
-2.22045e-16
3.33067e-16
0
4.44089e-16
0
3.33067e-16
3.33067e-16
4.44089e-16
3.33067e-16
5.55112e-16
2.22045e-16
3.33067e-16
5.55112e-16
7.77156e-16
2.22045e-16
5.55112e-16
2.22045e-16
4.44089e-16
1.11022e-16
4.44089e-16
0
4.44089e-16
0
5.55112e-16
0
6.66134e-16
1.11022e-16
5.55112e-16
1.11022e-16
4.44089e-16
1.11022e-16
6.66134e-16
0
3.33067e-16
1.11022e-16
5.55112e-16
2.22045e-16
5.55112e-16
-3.33067e-16
1.11022e-16
-2.22045e-16
6.66134e-16
-1.11022e-16
2.22045e-16
2.3791e-12
2.22045e-16
5.06948e-09
2.22045e-15
1.26514e-06
6.38822e-13
5.40031e-05
3.96845e-11
0.000615561
6.48287e-10
0.00293422
4.25144e-09
0.00829503
1.5751e-08
0.01724
4.0983e-08
0.0296416
8.46865e-08
0.0449922
1.4931e-07
0.0626292
2.34887e-07
0.0818868
3.39585e-07
0.102172
4.60475e-07
0.122994
5.94227e-07
0.143969
7.37635e-07
0.164803
8.87916e-07
0.185274
1.04275e-06
0.205209
1.20039e-06
0.224468
1.35976e-06
0.242922
1.52084e-06
0.260423
1.6852e-06
0.276777
1.85712e-06
0.291713
2.04317e-06
0.304874
2.25027e-06
0.315849
2.48187e-06
0.324287
2.73489e-06
0.330081
3.00067e-06
0.33349
3.26011e-06
0.335132
3.50125e-06
0.335712
3.6709e-06
0.335732
3.85266e-06
0.335464
3.96671e-06
0.334948
3.94019e-06
0.334361
3.89263e-06
0.333909
3.87374e-06
0.333655
3.82547e-06
0.333545
3.79488e-06
0.333475
3.56646e-06
0.33336
3.71435e-06
0.333149
3.4367e-06
0.332939
3.25222e-06
0.332837
3.10441e-06
0.332813
3.13221e-06
0.332793
2.5205e-06
0.332639
2.42275e-06
0.33236
2.17387e-06
0.332181
1.9256e-06
0.332134
1.28252e-06
0.332071
1.39308e-06
0.331831
1.19752e-07
0.331356
-2.23072e-07
0.331065
-2.88005e-07
0.331659
-1.65682e-06
0.333763
-2.01491e-06
0.339707
-3.15897e-06
0.354773
-4.15904e-06
0.385712
-5.00627e-06
0.441418
-5.89277e-06
0.527132
-6.26589e-06
0.63123
-7.38217e-06
0.718429
-7.81819e-06
0.766601
-7.23633e-06
0.775755
-6.63438e-06
0.776032
-6.50731e-06
0.774435
-6.28455e-06
0.771368
-6.08403e-06
0.767646
-5.83106e-06
0.764721
-5.44644e-06
0.763703
-5.0079e-06
0.763374
-4.78886e-06
0.762897
-4.62552e-06
0.760868
-4.4664e-06
0.75265
-4.28558e-06
0.72533
-4.04541e-06
0.645694
-3.62303e-06
0.451298
-2.77457e-06
0.161667
-1.40281e-06
0.0148807
-3.02799e-07
0.000202475
-1.74385e-08
2.75915e-07
-1.65653e-10
2.92463e-11
-1.64757e-13
2.9976e-15
-4.44089e-16
-2.22045e-16
-4.996e-16
-2.22045e-16
-3.33067e-16
2.77556e-16
-2.77556e-16
5.55112e-17
-3.33067e-16
-1.11022e-16
-2.77556e-16
-3.88578e-16
-5.55112e-16
-3.33067e-16
-5.55112e-16
0
-1.66533e-16
1.66533e-16
-3.88578e-16
4.996e-16
-5.55112e-17
4.44089e-16
-1.11022e-16
-5.55112e-17
-2.77556e-16
-1.66533e-16
5.55112e-17
3.33067e-16
-3.33067e-16
0
-2.22045e-16
0
1.11022e-16
-5.55112e-17
2.22045e-16
-1.11022e-16
-1.11022e-16
-3.33067e-16
-1.11022e-16
-2.77556e-16
2.22045e-16
5.55112e-17
5.55112e-17
2.22045e-16
2.22045e-16
5.55112e-17
-2.22045e-16
0
-6.10623e-16
5.55112e-17
-3.88578e-16
1.11022e-16
-8.32667e-16
-5.55112e-17
-6.66134e-16
1.66533e-16
-6.10623e-16
2.77556e-16
-7.21645e-16
1.66533e-16
-5.55112e-16
-6.10623e-16
2.22045e-16
0
2.22045e-16
2.22045e-16
-1.11022e-16
2.22045e-16
3.33067e-16
3.33067e-16
5.55112e-16
1.11022e-16
4.44089e-16
3.33067e-16
4.44089e-16
-1.11022e-16
2.22045e-16
1.11022e-16
0
0
0
-1.11022e-16
-2.22045e-16
0
1.11022e-16
3.33067e-16
-2.22045e-16
0
-1.11022e-16
2.22045e-16
-1.11022e-16
2.22045e-16
0
2.22045e-16
4.44089e-16
3.33067e-16
1.11022e-16
2.22045e-16
2.22045e-16
4.44089e-16
2.22045e-16
2.22045e-16
-1.11022e-16
4.44089e-16
-1.11022e-16
4.44089e-16
-1.11022e-16
2.22045e-16
-3.33067e-16
4.44089e-16
-4.44089e-16
2.22045e-16
-6.66134e-16
3.33067e-16
-3.33067e-16
6.66134e-16
-3.33067e-16
5.55112e-16
0
3.33067e-16
-1.11022e-16
3.33067e-16
2.22045e-16
2.22045e-16
-2.22045e-16
-1.11022e-16
0
4.44089e-16
-5.55112e-16
1.11022e-16
1.11022e-16
6.66134e-16
2.22045e-16
2.22045e-16
1.11022e-16
4.44089e-16
3.33067e-16
3.33067e-16
2.22045e-16
4.44089e-16
0
4.44089e-16
3.33067e-16
5.55112e-16
3.33067e-16
3.33067e-16
0
-3.33067e-16
-2.22045e-16
0
0
5.55112e-16
-1.11022e-16
2.22045e-16
1.11022e-16
6.66134e-16
1.11022e-16
4.44089e-16
2.22045e-16
2.22045e-16
0
5.55112e-16
-3.33067e-16
-1.11022e-16
-3.33067e-16
-3.33067e-16
-1.11022e-16
-2.22045e-16
2.37965e-12
1.11022e-16
5.06953e-09
5.55112e-16
1.26515e-06
3.83582e-13
5.40035e-05
2.47725e-11
0.000615564
4.26315e-10
0.00293423
2.94543e-09
0.00829505
1.14261e-08
0.01724
3.08727e-08
0.0296417
6.57679e-08
0.0449922
1.18896e-07
0.0626293
1.91036e-07
0.0818869
2.81251e-07
0.102172
3.8743e-07
0.122994
5.06862e-07
0.143969
6.36738e-07
0.164804
7.74484e-07
0.185274
9.17876e-07
0.205209
1.06519e-06
0.224469
1.21529e-06
0.242923
1.36793e-06
0.260424
1.52425e-06
0.276777
1.68755e-06
0.291714
1.86369e-06
0.304874
2.05972e-06
0.315849
2.28089e-06
0.324288
2.52548e-06
0.330081
2.78579e-06
0.333491
3.03635e-06
0.335132
3.28146e-06
0.335712
3.44588e-06
0.335732
3.62941e-06
0.335464
3.76634e-06
0.334948
3.75367e-06
0.334361
3.70172e-06
0.333909
3.67401e-06
0.333655
3.63886e-06
0.333545
3.59857e-06
0.333475
3.37595e-06
0.33336
3.51437e-06
0.333148
3.20395e-06
0.332938
3.02441e-06
0.332837
2.85427e-06
0.332813
2.89276e-06
0.332792
2.26964e-06
0.332639
2.19514e-06
0.332359
1.96656e-06
0.332181
1.73375e-06
0.332133
1.09359e-06
0.332071
1.20009e-06
0.331831
-2.06283e-08
0.331355
-3.37434e-07
0.331064
-4.09714e-07
0.331658
-1.59698e-06
0.333762
-1.90157e-06
0.339707
-2.84763e-06
0.354773
-3.64319e-06
0.385712
-4.28981e-06
0.441418
-4.90845e-06
0.527132
-5.11018e-06
0.631231
-5.9161e-06
0.71843
-6.24982e-06
0.766602
-6.01814e-06
0.775755
-5.99506e-06
0.776033
-5.94804e-06
0.774436
-5.78503e-06
0.771368
-5.5977e-06
0.767647
-5.35822e-06
0.764722
-5.01186e-06
0.763703
-4.61534e-06
0.763374
-4.41693e-06
0.762897
-4.27374e-06
0.760869
-4.13414e-06
0.752651
-3.96975e-06
0.725331
-3.7445e-06
0.645695
-3.34363e-06
0.4513
-2.54543e-06
0.161668
-1.27641e-06
0.0148809
-2.72945e-07
0.00020248
-1.55764e-08
2.75926e-07
-1.4679e-10
2.92481e-11
-1.45217e-13
2.72005e-15
-2.22045e-16
-1.11022e-16
-6.66134e-16
-1.11022e-16
-6.66134e-16
5.55112e-17
-5.55112e-16
0
-4.996e-16
-3.88578e-16
-5.55112e-16
-3.33067e-16
-3.88578e-16
-5.55112e-17
-2.77556e-16
-1.66533e-16
-2.22045e-16
1.66533e-16
-1.11022e-16
3.88578e-16
1.66533e-16
3.88578e-16
-2.22045e-16
0
-4.44089e-16
-2.77556e-16
-1.11022e-16
1.66533e-16
-1.11022e-16
1.11022e-16
-2.22045e-16
0
-3.33067e-16
-3.33067e-16
5.55112e-17
-2.22045e-16
0
-2.77556e-16
1.66533e-16
-3.33067e-16
-1.11022e-16
-5.55112e-17
1.66533e-16
-2.22045e-16
0
-2.22045e-16
-3.33067e-16
2.22045e-16
-4.44089e-16
-1.66533e-16
-3.88578e-16
1.11022e-16
-4.996e-16
-1.66533e-16
-5.55112e-16
1.66533e-16
-5.55112e-16
2.77556e-16
-6.66134e-16
1.66533e-16
-3.88578e-16
-3.33067e-16
2.22045e-16
5.55112e-16
1.11022e-16
2.22045e-16
4.44089e-16
1.11022e-16
3.33067e-16
0
7.77156e-16
0
2.22045e-16
0
3.33067e-16
0
5.55112e-16
1.11022e-16
0
-1.11022e-16
4.44089e-16
0
3.33067e-16
-1.11022e-16
0
0
0
-2.22045e-16
-1.11022e-16
-1.11022e-16
0
5.55112e-16
0
2.22045e-16
2.22045e-16