/*--------------------------------*- C++ -*----------------------------------*\
  =========                 |
  \\      /  F ield         | OpenFOAM: The Open Source CFD Toolbox
   \\    /   O peration     | Website:  https://openfoam.org
    \\  /    A nd           | Version:  13
     \\/     M anipulation  |
\*---------------------------------------------------------------------------*/
FoamFile
{
    format      ascii;
    class       volScalarField;
    location    "0.0006";
    object      Qdot;
}
// * * * * * * * * * * * * * * * * * * * * * * * * * * * * * * * * * * * * * //

dimensions      [1 -1 -3 0 0 0 0];

internalField   nonuniform List<scalar> 
33334
(
1.47769e+08
1.47769e+08
1.47769e+08
1.47769e+08
1.47769e+08
1.47769e+08
1.47769e+08
1.47769e+08
1.47769e+08
1.47769e+08
1.47769e+08
1.47769e+08
1.47769e+08
1.47769e+08
1.47769e+08
1.47769e+08
1.47769e+08
1.47769e+08
1.47769e+08
1.47769e+08
1.47769e+08
1.47769e+08
1.47769e+08
1.47769e+08
1.47769e+08
1.47769e+08
1.47769e+08
1.47769e+08
1.47769e+08
1.47769e+08
1.47769e+08
1.47769e+08
1.47769e+08
1.47769e+08
1.47769e+08
1.47769e+08
1.47769e+08
1.47769e+08
1.47769e+08
1.47769e+08
1.47769e+08
1.47769e+08
1.47769e+08
1.47769e+08
1.47769e+08
1.47769e+08
1.47769e+08
1.47769e+08
1.47769e+08
1.47769e+08
1.47769e+08
1.47769e+08
1.47769e+08
1.47769e+08
1.47769e+08
1.47769e+08
1.47761e+08
1.47623e+08
1.4678e+08
1.44237e+08
1.39281e+08
1.31841e+08
1.22345e+08
1.1147e+08
9.99419e+07
8.83785e+07
7.72503e+07
6.68704e+07
5.74167e+07
4.89658e+07
4.15234e+07
3.50502e+07
2.94821e+07
2.47446e+07
2.07632e+07
1.74691e+07
1.48023e+07
1.27089e+07
1.1135e+07
1.00177e+07
9.27788e+06
8.82035e+06
8.54529e+06
8.3614e+06
8.22431e+06
8.14756e+06
8.08539e+06
8.01526e+06
7.93277e+06
7.83671e+06
7.73144e+06
7.62573e+06
7.52863e+06
7.44148e+06
7.35351e+06
7.2582e+06
7.15956e+06
7.06222e+06
6.97689e+06
6.89667e+06
6.81909e+06
6.75069e+06
6.6924e+06
6.65636e+06
6.61028e+06
6.48393e+06
5.96201e+06
4.87164e+06
2.95577e+06
1.03621e+06
147281
5900.87
68.9017
0.655549
0.0283582
0.00858796
0.00678035
0.00673116
0.0069252
0.00740501
0.00780608
0.0080059
0.0080308
0.00794687
0.00776925
0.00722086
0.00601733
0.00350462
0.000760262
2.42786e-05
4.05666e-07
1.18596e-07
1.11277e-07
1.11225e-07
1.11225e-07
1.11225e-07
1.11225e-07
1.11225e-07
1.11225e-07
1.11225e-07
1.11225e-07
1.11225e-07
1.11225e-07
1.11225e-07
1.11225e-07
1.11225e-07
1.11225e-07
1.11225e-07
1.11225e-07
1.11225e-07
1.11225e-07
1.11225e-07
1.11225e-07
1.11225e-07
1.11225e-07
1.11225e-07
1.11225e-07
1.11225e-07
1.11225e-07
1.11225e-07
1.11225e-07
1.11225e-07
1.11225e-07
1.11225e-07
1.11225e-07
1.11225e-07
1.47769e+08
1.47769e+08
1.47769e+08
1.47769e+08
1.47769e+08
1.47769e+08
1.47769e+08
1.47769e+08
1.47769e+08
1.47769e+08
1.47769e+08
1.47769e+08
1.47769e+08
1.47769e+08
1.47769e+08
1.47769e+08
1.47769e+08
1.47769e+08
1.47769e+08
1.47769e+08
1.47769e+08
1.47769e+08
1.47769e+08
1.47769e+08
1.47769e+08
1.47769e+08
1.47769e+08
1.47769e+08
1.47769e+08
1.47769e+08
1.47769e+08
1.47769e+08
1.47769e+08
1.47769e+08
1.47769e+08
1.47769e+08
1.47769e+08
1.47769e+08
1.47769e+08
1.47769e+08
1.47769e+08
1.47769e+08
1.47769e+08
1.47769e+08
1.47769e+08
1.47769e+08
1.47769e+08
1.47769e+08
1.47769e+08
1.47769e+08
1.47769e+08
1.47769e+08
1.47769e+08
1.47769e+08
1.47769e+08
1.47769e+08
1.47761e+08
1.47623e+08
1.4678e+08
1.44237e+08
1.39281e+08
1.31841e+08
1.22345e+08
1.1147e+08
9.99418e+07
8.83785e+07
7.72503e+07
6.68703e+07
5.74167e+07
4.89657e+07
4.15233e+07
3.50501e+07
2.9482e+07
2.47445e+07
2.07631e+07
1.7469e+07
1.48022e+07
1.27088e+07
1.11349e+07
1.00176e+07
9.27776e+06
8.82021e+06
8.54511e+06
8.36128e+06
8.22418e+06
8.14742e+06
8.08524e+06
8.01511e+06
7.93262e+06
7.83655e+06
7.7313e+06
7.62557e+06
7.52849e+06
7.44134e+06
7.35338e+06
7.25801e+06
7.15936e+06
7.06207e+06
6.97677e+06
6.89654e+06
6.81894e+06
6.75055e+06
6.69219e+06
6.65617e+06
6.61016e+06
6.48383e+06
5.96217e+06
4.87211e+06
2.95647e+06
1.03666e+06
147379
5905.94
68.9613
0.655906
0.0283648
0.00858805
0.00677996
0.00673075
0.0069247
0.00740443
0.00780567
0.00800557
0.00803042
0.00794655
0.00776899
0.00722063
0.00601717
0.00350457
0.000760268
2.42794e-05
4.05674e-07
1.18596e-07
1.11277e-07
1.11225e-07
1.11225e-07
1.11225e-07
1.11225e-07
1.11225e-07
1.11225e-07
1.11225e-07
1.11225e-07
1.11225e-07
1.11225e-07
1.11225e-07
1.11225e-07
1.11225e-07
1.11225e-07
1.11225e-07
1.11225e-07
1.11225e-07
1.11225e-07
1.11225e-07
1.11225e-07
1.11225e-07
1.11225e-07
1.11225e-07
1.11225e-07
1.11225e-07
1.11225e-07
1.11225e-07
1.11225e-07
1.11225e-07
1.11225e-07
1.11225e-07
1.11225e-07
1.11225e-07
1.47769e+08
1.47769e+08
1.47769e+08
1.47769e+08
1.47769e+08
1.47769e+08
1.47769e+08
1.47769e+08
1.47769e+08
1.47769e+08
1.47769e+08
1.47769e+08
1.47769e+08
1.47769e+08
1.47769e+08
1.47769e+08
1.47769e+08
1.47769e+08
1.47769e+08
1.47769e+08
1.47769e+08
1.47769e+08
1.47769e+08
1.47769e+08
1.47769e+08
1.47769e+08
1.47769e+08
1.47769e+08
1.47769e+08
1.47769e+08
1.47769e+08
1.47769e+08
1.47769e+08
1.47769e+08
1.47769e+08
1.47769e+08
1.47769e+08
1.47769e+08
1.47769e+08
1.47769e+08
1.47769e+08
1.47769e+08
1.47769e+08
1.47769e+08
1.47769e+08
1.47769e+08
1.47769e+08
1.47769e+08
1.47769e+08
1.47769e+08
1.47769e+08
1.47769e+08
1.47769e+08
1.47769e+08
1.47769e+08
1.47769e+08
1.47761e+08
1.47623e+08
1.4678e+08
1.44237e+08
1.39281e+08
1.31841e+08
1.22345e+08
1.1147e+08
9.99417e+07
8.83783e+07
7.72501e+07
6.68702e+07
5.74165e+07
4.89656e+07
4.15232e+07
3.505e+07
2.94819e+07
2.47444e+07
2.07629e+07
1.74689e+07
1.48021e+07
1.27087e+07
1.11348e+07
1.00175e+07
9.27763e+06
8.82007e+06
8.54498e+06
8.36115e+06
8.22409e+06
8.14726e+06
8.08508e+06
8.01496e+06
7.93246e+06
7.83637e+06
7.73113e+06
7.62538e+06
7.52831e+06
7.44115e+06
7.35319e+06
7.25782e+06
7.15918e+06
7.06187e+06
6.97658e+06
6.89634e+06
6.81873e+06
6.75034e+06
6.69197e+06
6.65596e+06
6.60996e+06
6.48367e+06
5.9622e+06
4.87244e+06
2.95707e+06
1.0371e+06
147486
5912.05
69.0402
0.656481
0.0283752
0.00858827
0.00677956
0.0067303
0.00692422
0.00740389
0.0078052
0.00800516
0.00803006
0.00794624
0.00776873
0.00722046
0.00601708
0.00350455
0.00076028
2.42801e-05
4.05682e-07
1.18596e-07
1.11277e-07
1.11225e-07
1.11225e-07
1.11225e-07
1.11225e-07
1.11225e-07
1.11225e-07
1.11225e-07
1.11225e-07
1.11225e-07
1.11225e-07
1.11225e-07
1.11225e-07
1.11225e-07
1.11225e-07
1.11225e-07
1.11225e-07
1.11225e-07
1.11225e-07
1.11225e-07
1.11225e-07
1.11225e-07
1.11225e-07
1.11225e-07
1.11225e-07
1.11225e-07
1.11225e-07
1.11225e-07
1.11225e-07
1.11225e-07
1.11225e-07
1.11225e-07
1.11225e-07
1.11225e-07
1.47769e+08
1.47769e+08
1.47769e+08
1.47769e+08
1.47769e+08
1.47769e+08
1.47769e+08
1.47769e+08
1.47769e+08
1.47769e+08
1.47769e+08
1.47769e+08
1.47769e+08
1.47769e+08
1.47769e+08
1.47769e+08
1.47769e+08
1.47769e+08
1.47769e+08
1.47769e+08
1.47769e+08
1.47769e+08
1.47769e+08
1.47769e+08
1.47769e+08
1.47769e+08
1.47769e+08
1.47769e+08
1.47769e+08
1.47769e+08
1.47769e+08
1.47769e+08
1.47769e+08
1.47769e+08
1.47769e+08
1.47769e+08
1.47769e+08
1.47769e+08
1.47769e+08
1.47769e+08
1.47769e+08
1.47769e+08
1.47769e+08
1.47769e+08
1.47769e+08
1.47769e+08
1.47769e+08
1.47769e+08
1.47769e+08
1.47769e+08
1.47769e+08
1.47769e+08
1.47769e+08
1.47769e+08
1.47769e+08
1.47769e+08
1.47761e+08
1.47623e+08
1.4678e+08
1.44237e+08
1.39281e+08
1.31841e+08
1.22345e+08
1.1147e+08
9.99416e+07
8.83782e+07
7.725e+07
6.68701e+07
5.74164e+07
4.89655e+07
4.15231e+07
3.50499e+07
2.94818e+07
2.47443e+07
2.07629e+07
1.74689e+07
1.48021e+07
1.27086e+07
1.11347e+07
1.00174e+07
9.27756e+06
8.82001e+06
8.54492e+06
8.36108e+06
8.22405e+06
8.1472e+06
8.085e+06
8.01487e+06
7.93238e+06
7.83628e+06
7.73104e+06
7.62528e+06
7.5282e+06
7.44103e+06
7.35308e+06
7.25768e+06
7.15907e+06
7.06175e+06
6.97646e+06
6.89621e+06
6.81859e+06
6.75019e+06
6.69183e+06
6.65581e+06
6.60983e+06
6.48357e+06
5.96221e+06
4.87262e+06
2.95738e+06
1.03733e+06
147545
5915.46
69.0845
0.656777
0.0283815
0.00858848
0.00677938
0.00673007
0.00692395
0.00740364
0.00780501
0.00800502
0.00802995
0.00794614
0.00776867
0.00722043
0.00601709
0.00350458
0.000760293
2.42808e-05
4.05689e-07
1.18596e-07
1.11277e-07
1.11225e-07
1.11225e-07
1.11225e-07
1.11225e-07
1.11225e-07
1.11225e-07
1.11225e-07
1.11225e-07
1.11225e-07
1.11225e-07
1.11225e-07
1.11225e-07
1.11225e-07
1.11225e-07
1.11225e-07
1.11225e-07
1.11225e-07
1.11225e-07
1.11225e-07
1.11225e-07
1.11225e-07
1.11225e-07
1.11225e-07
1.11225e-07
1.11225e-07
1.11225e-07
1.11225e-07
1.11225e-07
1.11225e-07
1.11225e-07
1.11225e-07
1.11225e-07
1.11225e-07
1.47769e+08
1.47769e+08
1.47769e+08
1.47769e+08
1.47769e+08
1.47769e+08
1.47769e+08
1.47769e+08
1.47769e+08
1.47769e+08
1.47769e+08
1.47769e+08
1.47769e+08
1.47769e+08
1.47769e+08
1.47769e+08
1.47769e+08
1.47769e+08
1.47769e+08
1.47769e+08
1.47769e+08
1.47769e+08
1.47769e+08
1.47769e+08
1.47769e+08
1.47769e+08
1.47769e+08
1.47769e+08
1.47769e+08
1.47769e+08
1.47769e+08
1.47769e+08
1.47769e+08
1.47769e+08
1.47769e+08
1.47769e+08
1.47769e+08
1.47769e+08
1.47769e+08
1.47769e+08
1.47769e+08
1.47769e+08
1.47769e+08
1.47769e+08
1.47769e+08
1.47769e+08
1.47769e+08
1.47769e+08
1.47769e+08
1.47769e+08
1.47769e+08
1.47769e+08
1.47769e+08
1.47769e+08
1.47769e+08
1.47769e+08
1.47761e+08
1.47623e+08
1.4678e+08
1.44237e+08
1.39281e+08
1.31841e+08
1.22345e+08
1.1147e+08
9.99415e+07
8.83781e+07
7.72499e+07
6.687e+07
5.74164e+07
4.89655e+07
4.1523e+07
3.50498e+07
2.94817e+07
2.47443e+07
2.07628e+07
1.74688e+07
1.4802e+07
1.27086e+07
1.11347e+07
1.00174e+07
9.27753e+06
8.81998e+06
8.54489e+06
8.36105e+06
8.22404e+06
8.1472e+06
8.08498e+06
8.01485e+06
7.93236e+06
7.83626e+06
7.73101e+06
7.62525e+06
7.52817e+06
7.44099e+06
7.35304e+06
7.25764e+06
7.15904e+06
7.06171e+06
6.97641e+06
6.89615e+06
6.81854e+06
6.75013e+06
6.69177e+06
6.65576e+06
6.60977e+06
6.48352e+06
5.9622e+06
4.87266e+06
2.95746e+06
1.03739e+06
147560
5916.39
69.0973
0.656884
0.0283839
0.0085886
0.00677936
0.00673003
0.0069239
0.00740359
0.00780497
0.008005
0.00802994
0.00794614
0.00776868
0.00722045
0.0060171
0.0035046
0.000760306
2.42815e-05
4.05696e-07
1.18597e-07
1.11277e-07
1.11225e-07
1.11225e-07
1.11225e-07
1.11225e-07
1.11225e-07
1.11225e-07
1.11225e-07
1.11225e-07
1.11225e-07
1.11225e-07
1.11225e-07
1.11225e-07
1.11225e-07
1.11225e-07
1.11225e-07
1.11225e-07
1.11225e-07
1.11225e-07
1.11225e-07
1.11225e-07
1.11225e-07
1.11225e-07
1.11225e-07
1.11225e-07
1.11225e-07
1.11225e-07
1.11225e-07
1.11225e-07
1.11225e-07
1.11225e-07
1.11225e-07
1.11225e-07
1.11225e-07
1.47769e+08
1.47769e+08
1.47769e+08
1.47769e+08
1.47769e+08
1.47769e+08
1.47769e+08
1.47769e+08
1.47769e+08
1.47769e+08
1.47769e+08
1.47769e+08
1.47769e+08
1.47769e+08
1.47769e+08
1.47769e+08
1.47769e+08
1.47769e+08
1.47769e+08
1.47769e+08
1.47769e+08
1.47769e+08
1.47769e+08
1.47769e+08
1.47769e+08
1.47769e+08
1.47769e+08
1.47769e+08
1.47769e+08
1.47769e+08
1.47769e+08
1.47769e+08
1.47769e+08
1.47769e+08
1.47769e+08
1.47769e+08
1.47769e+08
1.47769e+08
1.47769e+08
1.47769e+08
1.47769e+08
1.47769e+08
1.47769e+08
1.47769e+08
1.47769e+08
1.47769e+08
1.47769e+08
1.47769e+08
1.47769e+08
1.47769e+08
1.47769e+08
1.47769e+08
1.47769e+08
1.47769e+08
1.47769e+08
1.47769e+08
1.47761e+08
1.47623e+08
1.4678e+08
1.44237e+08
1.39281e+08
1.31841e+08
1.22345e+08
1.1147e+08
9.99414e+07
8.8378e+07
7.72499e+07
6.68699e+07
5.74163e+07
4.89654e+07
4.1523e+07
3.50498e+07
2.94817e+07
2.47442e+07
2.07628e+07
1.74688e+07
1.4802e+07
1.27086e+07
1.11347e+07
1.00173e+07
9.27751e+06
8.81996e+06
8.54488e+06
8.36104e+06
8.22404e+06
8.1472e+06
8.08498e+06
8.01485e+06
7.93235e+06
7.83626e+06
7.73101e+06
7.62525e+06
7.52816e+06
7.44098e+06
7.35303e+06
7.25764e+06
7.15904e+06
7.06171e+06
6.9764e+06
6.89614e+06
6.81852e+06
6.75012e+06
6.69176e+06
6.65575e+06
6.60976e+06
6.4835e+06
5.96219e+06
4.87266e+06
2.95747e+06
1.0374e+06
147561
5916.48
69.0991
0.656906
0.0283848
0.00858867
0.00677937
0.00673002
0.00692389
0.00740358
0.00780498
0.00800501
0.00802996
0.00794616
0.0077687
0.00722047
0.00601713
0.00350463
0.000760318
2.42822e-05
4.05703e-07
1.18597e-07
1.11277e-07
1.11225e-07
1.11225e-07
1.11225e-07
1.11225e-07
1.11225e-07
1.11225e-07
1.11225e-07
1.11225e-07
1.11225e-07
1.11225e-07
1.11225e-07
1.11225e-07
1.11225e-07
1.11225e-07
1.11225e-07
1.11225e-07
1.11225e-07
1.11225e-07
1.11225e-07
1.11225e-07
1.11225e-07
1.11225e-07
1.11225e-07
1.11225e-07
1.11225e-07
1.11225e-07
1.11225e-07
1.11225e-07
1.11225e-07
1.11225e-07
1.11225e-07
1.11225e-07
1.11225e-07
1.47769e+08
1.47769e+08
1.47769e+08
1.47769e+08
1.47769e+08
1.47769e+08
1.47769e+08
1.47769e+08
1.47769e+08
1.47769e+08
1.47769e+08
1.47769e+08
1.47769e+08
1.47769e+08
1.47769e+08
1.47769e+08
1.47769e+08
1.47769e+08
1.47769e+08
1.47769e+08
1.47769e+08
1.47769e+08
1.47769e+08
1.47769e+08
1.47769e+08
1.47769e+08
1.47769e+08
1.47769e+08
1.47769e+08
1.47769e+08
1.47769e+08
1.47769e+08
1.47769e+08
1.47769e+08
1.47769e+08
1.47769e+08
1.47769e+08
1.47769e+08
1.47769e+08
1.47769e+08
1.47769e+08
1.47769e+08
1.47769e+08
1.47769e+08
1.47769e+08
1.47769e+08
1.47769e+08
1.47769e+08
1.47769e+08
1.47769e+08
1.47769e+08
1.47769e+08
1.47769e+08
1.47769e+08
1.47769e+08
1.47769e+08
1.47761e+08
1.47623e+08
1.4678e+08
1.44237e+08
1.39281e+08
1.31841e+08
1.22344e+08
1.1147e+08
9.99413e+07
8.8378e+07
7.72498e+07
6.68698e+07
5.74162e+07
4.89653e+07
4.15229e+07
3.50497e+07
2.94816e+07
2.47442e+07
2.07628e+07
1.74687e+07
1.48019e+07
1.27085e+07
1.11346e+07
1.00173e+07
9.27748e+06
8.81995e+06
8.54486e+06
8.36104e+06
8.22403e+06
8.1472e+06
8.08498e+06
8.01485e+06
7.93235e+06
7.83627e+06
7.73101e+06
7.62525e+06
7.52816e+06
7.44099e+06
7.35303e+06
7.25764e+06
7.15904e+06
7.06172e+06
6.9764e+06
6.89614e+06
6.81852e+06
6.75012e+06
6.69176e+06
6.65575e+06
6.60976e+06
6.4835e+06
5.96218e+06
4.87264e+06
2.95744e+06
1.03738e+06
147558
5916.38
69.0985
0.656908
0.0283851
0.00858871
0.00677939
0.00673003
0.0069239
0.0074036
0.00780501
0.00800505
0.00803
0.00794619
0.00776873
0.0072205
0.00601715
0.00350465
0.00076033
2.42828e-05
4.05709e-07
1.18597e-07
1.11277e-07
1.11225e-07
1.11225e-07
1.11225e-07
1.11225e-07
1.11225e-07
1.11225e-07
1.11225e-07
1.11225e-07
1.11225e-07
1.11225e-07
1.11225e-07
1.11225e-07
1.11225e-07
1.11225e-07
1.11225e-07
1.11225e-07
1.11225e-07
1.11225e-07
1.11225e-07
1.11225e-07
1.11225e-07
1.11225e-07
1.11225e-07
1.11225e-07
1.11225e-07
1.11225e-07
1.11225e-07
1.11225e-07
1.11225e-07
1.11225e-07
1.11225e-07
1.11225e-07
1.11225e-07
1.47769e+08
1.47769e+08
1.47769e+08
1.47769e+08
1.47769e+08
1.47769e+08
1.47769e+08
1.47769e+08
1.47769e+08
1.47769e+08
1.47769e+08
1.47769e+08
1.47769e+08
1.47769e+08
1.47769e+08
1.47769e+08
1.47769e+08
1.47769e+08
1.47769e+08
1.47769e+08
1.47769e+08
1.47769e+08
1.47769e+08
1.47769e+08
1.47769e+08
1.47769e+08
1.47769e+08
1.47769e+08
1.47769e+08
1.47769e+08
1.47769e+08
1.47769e+08
1.47769e+08
1.47769e+08
1.47769e+08
1.47769e+08
1.47769e+08
1.47769e+08
1.47769e+08
1.47769e+08
1.47769e+08
1.47769e+08
1.47769e+08
1.47769e+08
1.47769e+08
1.47769e+08
1.47769e+08
1.47769e+08
1.47769e+08
1.47769e+08
1.47769e+08
1.47769e+08
1.47769e+08
1.47769e+08
1.47769e+08
1.47769e+08
1.47761e+08
1.47623e+08
1.4678e+08
1.44237e+08
1.39281e+08
1.31841e+08
1.22344e+08
1.1147e+08
9.99412e+07
8.83779e+07
7.72497e+07
6.68698e+07
5.74161e+07
4.89653e+07
4.15228e+07
3.50497e+07
2.94816e+07
2.47442e+07
2.07627e+07
1.74687e+07
1.48019e+07
1.27085e+07
1.11346e+07
1.00173e+07
9.27746e+06
8.81993e+06
8.54485e+06
8.36102e+06
8.22402e+06
8.1472e+06
8.08498e+06
8.01485e+06
7.93235e+06
7.83627e+06
7.73101e+06
7.62525e+06
7.52816e+06
7.44099e+06
7.35303e+06
7.25764e+06
7.15904e+06
7.06172e+06
6.97641e+06
6.89615e+06
6.81852e+06
6.75012e+06
6.69177e+06
6.65575e+06
6.60977e+06
6.4835e+06
5.96217e+06
4.87262e+06
2.95741e+06
1.03736e+06
147554
5916.17
69.0964
0.6569
0.0283851
0.00858873
0.00677941
0.00673005
0.00692393
0.00740363
0.00780505
0.00800509
0.00803003
0.00794623
0.00776876
0.00722052
0.00601718
0.00350468
0.000760342
2.42833e-05
4.05714e-07
1.18597e-07
1.11277e-07
1.11225e-07
1.11225e-07
1.11225e-07
1.11225e-07
1.11225e-07
1.11225e-07
1.11225e-07
1.11225e-07
1.11225e-07
1.11225e-07
1.11225e-07
1.11225e-07
1.11225e-07
1.11225e-07
1.11225e-07
1.11225e-07
1.11225e-07
1.11225e-07
1.11225e-07
1.11225e-07
1.11225e-07
1.11225e-07
1.11225e-07
1.11225e-07
1.11225e-07
1.11225e-07
1.11225e-07
1.11225e-07
1.11225e-07
1.11225e-07
1.11225e-07
1.11225e-07
1.11225e-07
1.47769e+08
1.47769e+08
1.47769e+08
1.47769e+08
1.47769e+08
1.47769e+08
1.47769e+08
1.47769e+08
1.47769e+08
1.47769e+08
1.47769e+08
1.47769e+08
1.47769e+08
1.47769e+08
1.47769e+08
1.47769e+08
1.47769e+08
1.47769e+08
1.47769e+08
1.47769e+08
1.47769e+08
1.47769e+08
1.47769e+08
1.47769e+08
1.47769e+08
1.47769e+08
1.47769e+08
1.47769e+08
1.47769e+08
1.47769e+08
1.47769e+08
1.47769e+08
1.47769e+08
1.47769e+08
1.47769e+08
1.47769e+08
1.47769e+08
1.47769e+08
1.47769e+08
1.47769e+08
1.47769e+08
1.47769e+08
1.47769e+08
1.47769e+08
1.47769e+08
1.47769e+08
1.47769e+08
1.47769e+08
1.47769e+08
1.47769e+08
1.47769e+08
1.47769e+08
1.47769e+08
1.47769e+08
1.47769e+08
1.47769e+08
1.47761e+08
1.47623e+08
1.4678e+08
1.44237e+08
1.39281e+08
1.31841e+08
1.22344e+08
1.1147e+08
9.99412e+07
8.83778e+07
7.72496e+07
6.68697e+07
5.74161e+07
4.89652e+07
4.15228e+07
3.50496e+07
2.94815e+07
2.47441e+07
2.07627e+07
1.74687e+07
1.48019e+07
1.27085e+07
1.11346e+07
1.00173e+07
9.27744e+06
8.81991e+06
8.54483e+06
8.36101e+06
8.22401e+06
8.1472e+06
8.08498e+06
8.01485e+06
7.93235e+06
7.83627e+06
7.73101e+06
7.62526e+06
7.52816e+06
7.44099e+06
7.35303e+06
7.25764e+06
7.15904e+06
7.06172e+06
6.97641e+06
6.89616e+06
6.81853e+06
6.75013e+06
6.69178e+06
6.65576e+06
6.60978e+06
6.48351e+06
5.96217e+06
4.8726e+06
2.95738e+06
1.03734e+06
147549
5915.95
69.0942
0.656888
0.0283851
0.00858875
0.00677943
0.00673008
0.00692395
0.00740366
0.00780509
0.00800513
0.00803007
0.00794626
0.00776879
0.00722055
0.00601721
0.0035047
0.000760353
2.42839e-05
4.0572e-07
1.18597e-07
1.11277e-07
1.11225e-07
1.11225e-07
1.11225e-07
1.11225e-07
1.11225e-07
1.11225e-07
1.11225e-07
1.11225e-07
1.11225e-07
1.11225e-07
1.11225e-07
1.11225e-07
1.11225e-07
1.11225e-07
1.11225e-07
1.11225e-07
1.11225e-07
1.11225e-07
1.11225e-07
1.11225e-07
1.11225e-07
1.11225e-07
1.11225e-07
1.11225e-07
1.11225e-07
1.11225e-07
1.11225e-07
1.11225e-07
1.11225e-07
1.11225e-07
1.11225e-07
1.11225e-07
1.11225e-07
1.47769e+08
1.47769e+08
1.47769e+08
1.47769e+08
1.47769e+08
1.47769e+08
1.47769e+08
1.47769e+08
1.47769e+08
1.47769e+08
1.47769e+08
1.47769e+08
1.47769e+08
1.47769e+08
1.47769e+08
1.47769e+08
1.47769e+08
1.47769e+08
1.47769e+08
1.47769e+08
1.47769e+08
1.47769e+08
1.47769e+08
1.47769e+08
1.47769e+08
1.47769e+08
1.47769e+08
1.47769e+08
1.47769e+08
1.47769e+08
1.47769e+08
1.47769e+08
1.47769e+08
1.47769e+08
1.47769e+08
1.47769e+08
1.47769e+08
1.47769e+08
1.47769e+08
1.47769e+08
1.47769e+08
1.47769e+08
1.47769e+08
1.47769e+08
1.47769e+08
1.47769e+08
1.47769e+08
1.47769e+08
1.47769e+08
1.47769e+08
1.47769e+08
1.47769e+08
1.47769e+08
1.47769e+08
1.47769e+08
1.47769e+08
1.47761e+08
1.47623e+08
1.4678e+08
1.44237e+08
1.39281e+08
1.3184e+08
1.22344e+08
1.11469e+08
9.99411e+07
8.83778e+07
7.72496e+07
6.68696e+07
5.7416e+07
4.89652e+07
4.15227e+07
3.50496e+07
2.94815e+07
2.47441e+07
2.07627e+07
1.74686e+07
1.48019e+07
1.27085e+07
1.11346e+07
1.00172e+07
9.27741e+06
8.81989e+06
8.54482e+06
8.361e+06
8.224e+06
8.14719e+06
8.08498e+06
8.01484e+06
7.93235e+06
7.83627e+06
7.73101e+06
7.62526e+06
7.52817e+06
7.44099e+06
7.35304e+06
7.25764e+06
7.15904e+06
7.06172e+06
6.97642e+06
6.89616e+06
6.81854e+06
6.75014e+06
6.69178e+06
6.65577e+06
6.60979e+06
6.48351e+06
5.96217e+06
4.87259e+06
2.95737e+06
1.03733e+06
147547
5915.8
69.0925
0.65688
0.028385
0.00858877
0.00677945
0.0067301
0.00692398
0.00740369
0.00780513
0.00800516
0.0080301
0.00794629
0.00776882
0.00722058
0.00601724
0.00350473
0.000760363
2.42844e-05
4.05724e-07
1.18597e-07
1.11277e-07
1.11225e-07
1.11225e-07
1.11225e-07
1.11225e-07
1.11225e-07
1.11225e-07
1.11225e-07
1.11225e-07
1.11225e-07
1.11225e-07
1.11225e-07
1.11225e-07
1.11225e-07
1.11225e-07
1.11225e-07
1.11225e-07
1.11225e-07
1.11225e-07
1.11225e-07
1.11225e-07
1.11225e-07
1.11225e-07
1.11225e-07
1.11225e-07
1.11225e-07
1.11225e-07
1.11225e-07
1.11225e-07
1.11225e-07
1.11225e-07
1.11225e-07
1.11225e-07
1.11225e-07
1.47769e+08
1.47769e+08
1.47769e+08
1.47769e+08
1.47769e+08
1.47769e+08
1.47769e+08
1.47769e+08
1.47769e+08
1.47769e+08
1.47769e+08
1.47769e+08
1.47769e+08
1.47769e+08
1.47769e+08
1.47769e+08
1.47769e+08
1.47769e+08
1.47769e+08
1.47769e+08
1.47769e+08
1.47769e+08
1.47769e+08
1.47769e+08
1.47769e+08
1.47769e+08
1.47769e+08
1.47769e+08
1.47769e+08
1.47769e+08
1.47769e+08
1.47769e+08
1.47769e+08
1.47769e+08
1.47769e+08
1.47769e+08
1.47769e+08
1.47769e+08
1.47769e+08
1.47769e+08
1.47769e+08
1.47769e+08
1.47769e+08
1.47769e+08
1.47769e+08
1.47769e+08
1.47769e+08
1.47769e+08
1.47769e+08
1.47769e+08
1.47769e+08
1.47769e+08
1.47769e+08
1.47769e+08
1.47769e+08
1.47769e+08
1.47761e+08
1.47623e+08
1.4678e+08
1.44237e+08
1.39281e+08
1.3184e+08
1.22344e+08
1.11469e+08
9.99411e+07
8.83777e+07
7.72495e+07
6.68696e+07
5.7416e+07
4.89651e+07
4.15227e+07
3.50495e+07
2.94815e+07
2.4744e+07
2.07626e+07
1.74686e+07
1.48018e+07
1.27084e+07
1.11345e+07
1.00172e+07
9.27739e+06
8.81986e+06
8.5448e+06
8.36098e+06
8.22399e+06
8.14719e+06
8.08498e+06
8.01484e+06
7.93235e+06
7.83626e+06
7.73101e+06
7.62526e+06
7.52817e+06
7.441e+06
7.35304e+06
7.25765e+06
7.15904e+06
7.06173e+06
6.97642e+06
6.89617e+06
6.81855e+06
6.75015e+06
6.69179e+06
6.65578e+06
6.60979e+06
6.48352e+06
5.96218e+06
4.87259e+06
2.95736e+06
1.03732e+06
147545
5915.71
69.0916
0.656874
0.0283849
0.0085888
0.00677947
0.00673013
0.00692401
0.00740373
0.00780516
0.00800519
0.00803013
0.00794632
0.00776885
0.00722061
0.00601727
0.00350476
0.000760373
2.42848e-05
4.05728e-07
1.18597e-07
1.11277e-07
1.11225e-07
1.11225e-07
1.11225e-07
1.11225e-07
1.11225e-07
1.11225e-07
1.11225e-07
1.11225e-07
1.11225e-07
1.11225e-07
1.11225e-07
1.11225e-07
1.11225e-07
1.11225e-07
1.11225e-07
1.11225e-07
1.11225e-07
1.11225e-07
1.11225e-07
1.11225e-07
1.11225e-07
1.11225e-07
1.11225e-07
1.11225e-07
1.11225e-07
1.11225e-07
1.11225e-07
1.11225e-07
1.11225e-07
1.11225e-07
1.11225e-07
1.11225e-07
1.11225e-07
1.47769e+08
1.47769e+08
1.47769e+08
1.47769e+08
1.47769e+08
1.47769e+08
1.47769e+08
1.47769e+08
1.47769e+08
1.47769e+08
1.47769e+08
1.47769e+08
1.47769e+08
1.47769e+08
1.47769e+08
1.47769e+08
1.47769e+08
1.47769e+08
1.47769e+08
1.47769e+08
1.47769e+08
1.47769e+08
1.47769e+08
1.47769e+08
1.47769e+08
1.47769e+08
1.47769e+08
1.47769e+08
1.47769e+08
1.47769e+08
1.47769e+08
1.47769e+08
1.47769e+08
1.47769e+08
1.47769e+08
1.47769e+08
1.47769e+08
1.47769e+08
1.47769e+08
1.47769e+08
1.47769e+08
1.47769e+08
1.47769e+08
1.47769e+08
1.47769e+08
1.47769e+08
1.47769e+08
1.47769e+08
1.47769e+08
1.47769e+08
1.47769e+08
1.47769e+08
1.47769e+08
1.47769e+08
1.47769e+08
1.47769e+08
1.47761e+08
1.47623e+08
1.4678e+08
1.44237e+08
1.39281e+08
1.3184e+08
1.22344e+08
1.11469e+08
9.9941e+07
8.83777e+07
7.72495e+07
6.68695e+07
5.74159e+07
4.89651e+07
4.15226e+07
3.50495e+07
2.94814e+07
2.4744e+07
2.07626e+07
1.74686e+07
1.48018e+07
1.27084e+07
1.11345e+07
1.00172e+07
9.27736e+06
8.81984e+06
8.54478e+06
8.36096e+06
8.22398e+06
8.14718e+06
8.08498e+06
8.01484e+06
7.93235e+06
7.83626e+06
7.73101e+06
7.62526e+06
7.52817e+06
7.441e+06
7.35304e+06
7.25765e+06
7.15905e+06
7.06173e+06
6.97642e+06
6.89617e+06
6.81855e+06
6.75015e+06
6.6918e+06
6.65578e+06
6.6098e+06
6.48353e+06
5.96218e+06
4.87259e+06
2.95735e+06
1.03732e+06
147544
5915.65
69.0909
0.656871
0.0283849
0.00858882
0.0067795
0.00673016
0.00692404
0.00740376
0.00780519
0.00800522
0.00803015
0.00794634
0.00776888
0.00722064
0.0060173
0.00350479
0.000760383
2.42852e-05
4.05731e-07
1.18597e-07
1.11277e-07
1.11225e-07
1.11225e-07
1.11225e-07
1.11225e-07
1.11225e-07
1.11225e-07
1.11225e-07
1.11225e-07
1.11225e-07
1.11225e-07
1.11225e-07
1.11225e-07
1.11225e-07
1.11225e-07
1.11225e-07
1.11225e-07
1.11225e-07
1.11225e-07
1.11225e-07
1.11225e-07
1.11225e-07
1.11225e-07
1.11225e-07
1.11225e-07
1.11225e-07
1.11225e-07
1.11225e-07
1.11225e-07
1.11225e-07
1.11225e-07
1.11225e-07
1.11225e-07
1.11225e-07
1.47769e+08
1.47769e+08
1.47769e+08
1.47769e+08
1.47769e+08
1.47769e+08
1.47769e+08
1.47769e+08
1.47769e+08
1.47769e+08
1.47769e+08
1.47769e+08
1.47769e+08
1.47769e+08
1.47769e+08
1.47769e+08
1.47769e+08
1.47769e+08
1.47769e+08
1.47769e+08
1.47769e+08
1.47769e+08
1.47769e+08
1.47769e+08
1.47769e+08
1.47769e+08
1.47769e+08
1.47769e+08
1.47769e+08
1.47769e+08
1.47769e+08
1.47769e+08
1.47769e+08
1.47769e+08
1.47769e+08
1.47769e+08
1.47769e+08
1.47769e+08
1.47769e+08
1.47769e+08
1.47769e+08
1.47769e+08
1.47769e+08
1.47769e+08
1.47769e+08
1.47769e+08
1.47769e+08
1.47769e+08
1.47769e+08
1.47769e+08
1.47769e+08
1.47769e+08
1.47769e+08
1.47769e+08
1.47769e+08
1.47769e+08
1.47761e+08
1.47623e+08
1.4678e+08
1.44237e+08
1.39281e+08
1.3184e+08
1.22344e+08
1.11469e+08
9.9941e+07
8.83776e+07
7.72494e+07
6.68695e+07
5.74159e+07
4.8965e+07
4.15226e+07
3.50494e+07
2.94814e+07
2.4744e+07
2.07626e+07
1.74685e+07
1.48018e+07
1.27084e+07
1.11345e+07
1.00172e+07
9.27734e+06
8.81982e+06
8.54476e+06
8.36095e+06
8.22397e+06
8.14717e+06
8.08497e+06
8.01484e+06
7.93235e+06
7.83626e+06
7.73101e+06
7.62526e+06
7.52817e+06
7.441e+06
7.35304e+06
7.25765e+06
7.15905e+06
7.06173e+06
6.97643e+06
6.89618e+06
6.81856e+06
6.75016e+06
6.6918e+06
6.65579e+06
6.60981e+06
6.48353e+06
5.96218e+06
4.87259e+06
2.95735e+06
1.03732e+06
147543
5915.61
69.0904
0.656868
0.0283849
0.00858885
0.00677952
0.00673018
0.00692407
0.00740379
0.00780521
0.00800524
0.00803018
0.00794637
0.00776891
0.00722068
0.00601734
0.00350481
0.000760392
2.42855e-05
4.05734e-07
1.18598e-07
1.11277e-07
1.11225e-07
1.11225e-07
1.11225e-07
1.11225e-07
1.11225e-07
1.11225e-07
1.11225e-07
1.11225e-07
1.11225e-07
1.11225e-07
1.11225e-07
1.11225e-07
1.11225e-07
1.11225e-07
1.11225e-07
1.11225e-07
1.11225e-07
1.11225e-07
1.11225e-07
1.11225e-07
1.11225e-07
1.11225e-07
1.11225e-07
1.11225e-07
1.11225e-07
1.11225e-07
1.11225e-07
1.11225e-07
1.11225e-07
1.11225e-07
1.11225e-07
1.11225e-07
1.11225e-07
1.47769e+08
1.47769e+08
1.47769e+08
1.47769e+08
1.47769e+08
1.47769e+08
1.47769e+08
1.47769e+08
1.47769e+08
1.47769e+08
1.47769e+08
1.47769e+08
1.47769e+08
1.47769e+08
1.47769e+08
1.47769e+08
1.47769e+08
1.47769e+08
1.47769e+08
1.47769e+08
1.47769e+08
1.47769e+08
1.47769e+08
1.47769e+08
1.47769e+08
1.47769e+08
1.47769e+08
1.47769e+08
1.47769e+08
1.47769e+08
1.47769e+08
1.47769e+08
1.47769e+08
1.47769e+08
1.47769e+08
1.47769e+08
1.47769e+08
1.47769e+08
1.47769e+08
1.47769e+08
1.47769e+08
1.47769e+08
1.47769e+08
1.47769e+08
1.47769e+08
1.47769e+08
1.47769e+08
1.47769e+08
1.47769e+08
1.47769e+08
1.47769e+08
1.47769e+08
1.47769e+08
1.47769e+08
1.47769e+08
1.47769e+08
1.47761e+08
1.47623e+08
1.4678e+08
1.44237e+08
1.39281e+08
1.3184e+08
1.22344e+08
1.11469e+08
9.9941e+07
8.83776e+07
7.72494e+07
6.68695e+07
5.74158e+07
4.8965e+07
4.15226e+07
3.50494e+07
2.94814e+07
2.47439e+07
2.07625e+07
1.74685e+07
1.48017e+07
1.27083e+07
1.11344e+07
1.00171e+07
9.27732e+06
8.8198e+06
8.54474e+06
8.36093e+06
8.22395e+06
8.14716e+06
8.08497e+06
8.01484e+06
7.93235e+06
7.83626e+06
7.73101e+06
7.62526e+06
7.52817e+06
7.441e+06
7.35305e+06
7.25766e+06
7.15905e+06
7.06173e+06
6.97643e+06
6.89618e+06
6.81856e+06
6.75016e+06
6.69181e+06
6.65579e+06
6.60981e+06
6.48354e+06
5.96219e+06
4.87259e+06
2.95735e+06
1.03731e+06
147542
5915.57
69.09
0.656866
0.0283849
0.00858888
0.00677955
0.00673021
0.00692409
0.00740381
0.00780524
0.00800527
0.0080302
0.0079464
0.00776894
0.00722071
0.00601738
0.00350484
0.000760399
2.42857e-05
4.05736e-07
1.18598e-07
1.11277e-07
1.11225e-07
1.11225e-07
1.11225e-07
1.11225e-07
1.11225e-07
1.11225e-07
1.11225e-07
1.11225e-07
1.11225e-07
1.11225e-07
1.11225e-07
1.11225e-07
1.11225e-07
1.11225e-07
1.11225e-07
1.11225e-07
1.11225e-07
1.11225e-07
1.11225e-07
1.11225e-07
1.11225e-07
1.11225e-07
1.11225e-07
1.11225e-07
1.11225e-07
1.11225e-07
1.11225e-07
1.11225e-07
1.11225e-07
1.11225e-07
1.11225e-07
1.11225e-07
1.11225e-07
1.47769e+08
1.47769e+08
1.47769e+08
1.47769e+08
1.47769e+08
1.47769e+08
1.47769e+08
1.47769e+08
1.47769e+08
1.47769e+08
1.47769e+08
1.47769e+08
1.47769e+08
1.47769e+08
1.47769e+08
1.47769e+08
1.47769e+08
1.47769e+08
1.47769e+08
1.47769e+08
1.47769e+08
1.47769e+08
1.47769e+08
1.47769e+08
1.47769e+08
1.47769e+08
1.47769e+08
1.47769e+08
1.47769e+08
1.47769e+08
1.47769e+08
1.47769e+08
1.47769e+08
1.47769e+08
1.47769e+08
1.47769e+08
1.47769e+08
1.47769e+08
1.47769e+08
1.47769e+08
1.47769e+08
1.47769e+08
1.47769e+08
1.47769e+08
1.47769e+08
1.47769e+08
1.47769e+08
1.47769e+08
1.47769e+08
1.47769e+08
1.47769e+08
1.47769e+08
1.47769e+08
1.47769e+08
1.47769e+08
1.47769e+08
1.47761e+08
1.47623e+08
1.4678e+08
1.44237e+08
1.39281e+08
1.3184e+08
1.22344e+08
1.11469e+08
9.9941e+07
8.83776e+07
7.72494e+07
6.68694e+07
5.74158e+07
4.89649e+07
4.15225e+07
3.50494e+07
2.94813e+07
2.47439e+07
2.07625e+07
1.74685e+07
1.48017e+07
1.27083e+07
1.11344e+07
1.00171e+07
9.27729e+06
8.81978e+06
8.54472e+06
8.36091e+06
8.22393e+06
8.14715e+06
8.08496e+06
8.01484e+06
7.93234e+06
7.83626e+06
7.73101e+06
7.62526e+06
7.52817e+06
7.441e+06
7.35305e+06
7.25766e+06
7.15905e+06
7.06174e+06
6.97643e+06
6.89618e+06
6.81856e+06
6.75017e+06
6.69181e+06
6.6558e+06
6.60982e+06
6.48355e+06
5.96219e+06
4.87259e+06
2.95734e+06
1.03731e+06
147542
5915.54
69.0897
0.656865
0.0283849
0.00858891
0.00677957
0.00673023
0.00692412
0.00740384
0.00780526
0.00800529
0.00803023
0.00794642
0.00776897
0.00722075
0.00601741
0.00350487
0.000760406
2.42859e-05
4.05737e-07
1.18598e-07
1.11277e-07
1.11225e-07
1.11225e-07
1.11225e-07
1.11225e-07
1.11225e-07
1.11225e-07
1.11225e-07
1.11225e-07
1.11225e-07
1.11225e-07
1.11225e-07
1.11225e-07
1.11225e-07
1.11225e-07
1.11225e-07
1.11225e-07
1.11225e-07
1.11225e-07
1.11225e-07
1.11225e-07
1.11225e-07
1.11225e-07
1.11225e-07
1.11225e-07
1.11225e-07
1.11225e-07
1.11225e-07
1.11225e-07
1.11225e-07
1.11225e-07
1.11225e-07
1.11225e-07
1.11225e-07
1.47769e+08
1.47769e+08
1.47769e+08