/*--------------------------------*- C++ -*----------------------------------*\
  =========                 |
  \\      /  F ield         | OpenFOAM: The Open Source CFD Toolbox
   \\    /   O peration     | Website:  https://openfoam.org
    \\  /    A nd           | Version:  13
     \\/     M anipulation  |
\*---------------------------------------------------------------------------*/
FoamFile
{
    format      ascii;
    class       volVectorField;
    location    "0.0012";
    object      U;
}
// * * * * * * * * * * * * * * * * * * * * * * * * * * * * * * * * * * * * * //

dimensions      [0 1 -1 0 0 0 0];

internalField   nonuniform List<vector> 
33333
(
(-3.71221e-14 -1.59507e-13 0)
(-1.4411e-13 -1.74894e-13 0)
(-1.69921e-13 -1.2217e-13 0)
(-8.45113e-14 -1.42353e-13 0)
(3.97115e-14 -1.73213e-13 0)
(6.26439e-14 -1.59657e-13 0)
(3.46565e-14 -1.06496e-13 0)
(-1.64016e-14 -1.07134e-13 0)
(-3.138e-14 -9.65315e-14 0)
(2.44455e-14 -1.12919e-13 0)
(3.31276e-14 -1.83496e-13 0)
(2.11695e-15 -2.57401e-13 0)
(-7.96622e-15 -3.2159e-13 0)
(-5.48402e-14 -2.95562e-13 0)
(1.03709e-14 -1.02512e-13 0)
(1.44895e-13 -1.27319e-13 0)
(2.08156e-13 -1.58432e-13 0)
(1.97296e-13 -1.62706e-13 0)
(1.36811e-13 -1.30213e-13 0)
(1.28367e-13 -1.44612e-13 0)
(6.60584e-14 -2.15009e-13 0)
(2.98935e-14 -3.06957e-13 0)
(9.75705e-15 -2.65329e-13 0)
(3.51365e-14 -1.74956e-13 0)
(-6.74609e-15 -1.13713e-13 0)
(-1.05498e-13 -1.17972e-13 0)
(-1.22127e-13 -9.48941e-14 0)
(-1.7233e-13 -1.16723e-13 0)
(-4.07655e-14 -1.51562e-13 0)
(1.0219e-13 -2.04336e-13 0)
(7.71957e-14 -2.48115e-13 0)
(8.32825e-14 -2.11776e-13 0)
(3.1659e-14 -1.43375e-13 0)
(-2.08201e-14 -1.58307e-13 0)
(-3.19193e-14 -1.46418e-13 0)
(-1.07308e-13 -1.45878e-13 0)
(-5.15723e-14 -1.50839e-13 0)
(1.15357e-14 -2.63208e-13 0)
(-6.22455e-14 -2.68922e-13 0)
(-1.00576e-14 -1.50624e-13 0)
(-1.30462e-14 -1.5712e-13 0)
(-3.43938e-14 -3.92185e-14 0)
(1.91211e-13 -2.96173e-14 0)
(2.47417e-13 -1.05192e-13 0)
(1.73582e-13 -1.06381e-13 0)
(3.97069e-14 -2.14133e-13 0)
(-2.32078e-14 -3.46099e-13 0)
(-4.54109e-14 -2.81736e-13 0)
(-9.95665e-15 -1.49566e-13 0)
(-1.95303e-14 -1.38371e-13 0)
(-5.00242e-14 -1.3686e-13 0)
(-9.4589e-14 -1.45564e-13 0)
(-1.06938e-13 -1.48361e-13 0)
(-1.02599e-13 -1.38536e-13 0)
(-1.71548e-13 -1.72627e-13 0)
(-2.16552e-13 -1.51559e-13 0)
(-2.4981e-13 -1.86023e-13 0)
(-2.28103e-13 -1.88341e-13 0)
(-1.68092e-13 -2.00125e-13 0)
(-6.62302e-14 -1.79022e-13 0)
(-2.13544e-14 -1.43838e-13 0)
(7.04363e-15 -1.55577e-13 0)
(-2.61165e-14 -1.4894e-13 0)
(-2.79759e-14 -1.85042e-13 0)
(-3.02448e-14 -1.56455e-13 0)
(-1.59234e-14 -1.3871e-13 0)
(4.96626e-14 -1.33188e-13 0)
(1.06908e-14 -1.32498e-13 0)
(3.19809e-14 -1.61382e-13 0)
(1.01873e-13 -1.18262e-13 0)
(1.67181e-13 -1.29416e-13 0)
(1.18055e-13 -1.31679e-13 0)
(8.24428e-14 -2.14565e-13 0)
(1.03614e-13 -2.27949e-13 0)
(1.31526e-13 -2.76836e-13 0)
(6.06939e-14 -2.65092e-13 0)
(1.40835e-14 -2.27421e-13 0)
(8.33998e-15 -1.72856e-13 0)
(-1.768e-14 -1.98079e-13 0)
(-1.12168e-13 -2.59655e-13 0)
(-1.13678e-13 -2.38899e-13 0)
(-9.17477e-14 -1.76953e-13 0)
(-1.38118e-13 -1.52038e-13 0)
(-1.54531e-13 -1.24726e-13 0)
(-1.74565e-13 -1.12473e-13 0)
(-1.75283e-14 -5.53399e-14 0)
(1.96632e-13 -1.14372e-13 0)
(2.47662e-13 -2.07524e-13 0)
(1.65534e-13 -1.4643e-13 0)
(1.36071e-13 -9.44361e-14 0)
(-8.66001e-16 -1.19424e-13 0)
(-9.32344e-14 -1.42286e-13 0)
(-6.58329e-14 -2.08072e-13 0)
(-9.91594e-14 -1.88393e-13 0)
(1.78554e-14 -1.43816e-13 0)
(9.89726e-14 -2.78296e-13 0)
(1.05436e-13 -3.39357e-13 0)
(9.15706e-14 -1.87037e-13 0)
(6.58515e-14 -1.1863e-13 0)
(-9.43358e-15 -1.30638e-13 0)
(-1.12222e-13 -7.40339e-14 0)
(-1.7203e-13 -1.03762e-13 0)
(-2.29637e-13 -1.58376e-13 0)
(-1.97658e-13 -1.32663e-13 0)
(-3.86911e-14 -9.93042e-14 0)
(9.85988e-15 -4.77338e-14 0)
(1.30051e-13 -5.71706e-14 0)
(7.66746e-14 -9.34157e-14 0)
(2.36104e-14 -8.73125e-14 0)
(1.16348e-13 -9.52246e-14 0)
(1.64583e-13 -8.66862e-14 0)
(1.33293e-13 -1.31612e-13 0)
(2.4518e-14 -1.30126e-13 0)
(-2.86961e-14 -6.95785e-14 0)
(7.47956e-15 -6.21256e-14 0)
(-2.22624e-14 -7.68158e-14 0)
(-2.07533e-14 -1.10511e-13 0)
(-5.85959e-14 -1.05537e-13 0)
(-7.75712e-14 -1.29703e-13 0)
(-5.7305e-14 -1.3546e-13 0)
(7.63361e-14 -1.45186e-13 0)
(-1.18222e-14 -2.02223e-13 0)
(5.44618e-14 -1.36997e-13 0)
(1.82762e-13 -1.64236e-13 0)
(1.74989e-13 -1.19557e-13 0)
(1.09963e-13 -9.64264e-14 0)
(-8.09708e-16 -7.66548e-14 0)
(-1.3406e-13 -1.16306e-13 0)
(-9.33502e-14 -1.75145e-13 0)
(-7.381e-14 -2.06152e-13 0)
(-6.9429e-14 -1.30712e-13 0)
(2.91732e-14 -1.27661e-13 0)
(-1.90387e-15 -8.27646e-14 0)
(3.06386e-14 -1.10849e-13 0)
(-1.54779e-14 -1.6211e-13 0)
(-7.69234e-15 -1.91311e-13 0)
(-9.44987e-15 -1.75673e-13 0)
(-4.00022e-14 -1.76083e-13 0)
(-1.20561e-13 -1.59199e-13 0)
(2.65559e-14 -7.96228e-14 0)
(1.20845e-13 -1.74778e-13 0)
(7.87591e-15 -1.61235e-13 0)
(-1.38766e-14 -9.8573e-14 0)
(1.75246e-13 -1.01676e-13 0)
(3.59391e-13 -1.69562e-13 0)
(3.06369e-13 -1.97706e-13 0)
(2.75619e-13 -2.68364e-13 0)
(3.2947e-13 -2.06969e-13 0)
(4.16e-13 -1.99257e-13 0)
(3.90689e-13 -1.56472e-13 0)
(3.83841e-13 -1.3041e-13 0)
(6.6564e-13 -8.92812e-14 0)
(7.88121e-13 -1.23674e-13 0)
(9.30776e-13 -1.4414e-14 0)
(1.12346e-12 -1.0362e-13 0)
(1.0393e-12 -1.43798e-13 0)
(1.107e-12 -1.04009e-13 0)
(1.21186e-12 -4.82809e-14 0)
(1.1563e-12 -3.43299e-15 0)
(1.23263e-12 1.2925e-13 0)
(1.47763e-12 9.84663e-14 0)
(1.74142e-12 -3.69349e-14 0)
(1.97611e-12 -6.83206e-14 0)
(1.9831e-12 -1.72171e-13 0)
(2.06534e-12 -2.29482e-13 0)
(2.36054e-12 -3.21192e-13 0)
(2.61667e-12 -3.8161e-13 0)
(-7.10906e-14 -2.61279e-13 0)
(-1.1365e-13 -2.90033e-13 0)
(-1.71225e-13 -2.93432e-13 0)
(-8.86216e-14 -2.99131e-13 0)
(3.9993e-14 -1.69417e-13 0)
(1.04422e-13 -2.33173e-13 0)
(8.14127e-14 -3.03703e-13 0)
(-1.37057e-14 -2.42017e-13 0)
(-4.46118e-14 -2.78429e-13 0)
(-3.47837e-14 -2.55306e-13 0)
(-4.42542e-14 -3.4072e-13 0)
(-1.13015e-14 -2.75783e-13 0)
(-3.45157e-14 -2.3536e-13 0)
(7.8511e-14 -2.35703e-13 0)
(1.02046e-13 -9.42751e-14 0)
(5.29831e-14 -1.77216e-13 0)
(1.46254e-13 -2.30921e-13 0)
(1.86638e-13 -3.61112e-13 0)
(1.77222e-13 -3.16523e-13 0)
(9.08584e-14 -2.26149e-13 0)
(-1.39603e-14 -2.57099e-13 0)
(-1.75985e-14 -3.10676e-13 0)
(7.88936e-14 -3.62838e-13 0)
(1.0785e-13 -3.27072e-13 0)
(1.94113e-14 -3.21231e-13 0)
(-5.50499e-14 -2.6434e-13 0)
(-1.07478e-13 -2.58171e-13 0)
(-1.75154e-13 -2.52095e-13 0)
(-5.98945e-14 -3.04531e-13 0)
(3.23283e-14 -2.53551e-13 0)
(1.12943e-15 -3.88507e-13 0)
(1.17801e-13 -4.23546e-13 0)
(6.19618e-14 -3.82732e-13 0)
(3.37959e-14 -3.77181e-13 0)
(3.0889e-14 -4.12553e-13 0)
(-6.28672e-14 -3.65135e-13 0)
(-7.52081e-14 -2.28393e-13 0)
(-4.74787e-14 -2.37743e-13 0)
(7.81625e-15 -2.46482e-13 0)
(8.589e-15 -1.43517e-13 0)
(1.54594e-14 -1.58427e-13 0)
(6.06166e-14 -1.16791e-13 0)
(1.46642e-13 -1.30141e-13 0)
(2.10557e-13 -2.02803e-13 0)
(1.22662e-13 -2.68192e-13 0)
(-8.39201e-14 -2.56396e-13 0)
(-1.073e-13 -3.11768e-13 0)
(5.7318e-14 -3.59073e-13 0)
(8.19643e-14 -3.63506e-13 0)
(3.51026e-14 -4.24202e-13 0)
(-3.87884e-14 -3.56077e-13 0)
(-1.1061e-13 -3.48772e-13 0)
(-1.0828e-13 -3.33801e-13 0)
(-1.17708e-13 -3.54897e-13 0)
(-1.8214e-13 -3.02399e-13 0)
(-2.58394e-13 -3.61857e-13 0)
(-2.90144e-13 -4.04776e-13 0)
(-2.48257e-13 -3.21469e-13 0)
(-1.95764e-13 -3.93505e-13 0)
(-5.47239e-14 -3.42462e-13 0)
(-8.14954e-15 -3.90227e-13 0)
(2.73641e-14 -3.44088e-13 0)
(-3.27316e-14 -4.09861e-13 0)
(-3.08224e-14 -4.13977e-13 0)
(5.14413e-14 -3.12999e-13 0)
(2.96159e-14 -2.98991e-13 0)
(2.67716e-14 -3.46247e-13 0)
(-2.34611e-14 -3.88053e-13 0)
(5.00091e-14 -3.48964e-13 0)
(1.48784e-13 -2.65689e-13 0)
(1.67915e-13 -2.93796e-13 0)
(7.45318e-14 -2.6691e-13 0)
(8.07237e-15 -3.56524e-13 0)
(9.88559e-14 -3.40855e-13 0)
(1.67807e-13 -3.2346e-13 0)
(1.58003e-13 -2.71125e-13 0)
(9.54288e-14 -2.50665e-13 0)
(-2.55973e-14 -2.8594e-13 0)
(-1.0883e-13 -4.11342e-13 0)
(-1.41107e-13 -3.53588e-13 0)
(-7.8917e-14 -3.86252e-13 0)
(-3.56843e-14 -4.19689e-13 0)
(-9.96786e-14 -3.10364e-13 0)
(-1.15671e-13 -2.95637e-13 0)
(-1.48061e-13 -2.45421e-13 0)
(-1.8655e-14 -1.91601e-13 0)
(1.06078e-13 -1.44204e-13 0)
(2.05706e-13 -2.43252e-13 0)
(2.23664e-13 -3.08886e-13 0)
(1.30642e-13 -2.91722e-13 0)
(-1.97773e-14 -3.12933e-13 0)
(-1.19752e-13 -3.42607e-13 0)
(-7.6539e-14 -3.10214e-13 0)
(-3.89858e-14 -2.23373e-13 0)
(-4.82762e-14 -1.75277e-13 0)
(2.2806e-16 -2.37327e-13 0)
(1.66276e-13 -2.39223e-13 0)
(1.9492e-13 -2.6543e-13 0)
(8.36581e-14 -3.29123e-13 0)
(-2.033e-14 -3.95451e-13 0)
(-1.21298e-13 -2.91063e-13 0)
(-2.50899e-13 -2.44549e-13 0)
(-2.33687e-13 -2.05747e-13 0)
(-1.39776e-13 -1.34588e-13 0)
(-2.81232e-14 -7.63663e-14 0)
(4.31601e-14 -1.63975e-13 0)
(8.09515e-14 -2.40245e-13 0)
(3.93996e-14 -2.38706e-13 0)
(6.61601e-14 -2.99101e-13 0)
(1.51716e-13 -2.80211e-13 0)
(1.57385e-13 -2.95765e-13 0)
(1.10253e-13 -3.22441e-13 0)
(4.80538e-14 -2.69948e-13 0)
(2.39512e-14 -2.92651e-13 0)
(1.0801e-14 -2.49024e-13 0)
(-3.18364e-14 -2.62688e-13 0)
(-1.71035e-14 -3.4103e-13 0)
(-6.9957e-14 -3.97472e-13 0)
(-9.43727e-14 -3.34781e-13 0)
(-1.6465e-14 -2.63013e-13 0)
(5.50085e-14 -3.05202e-13 0)
(1.8812e-14 -2.36247e-13 0)
(7.601e-14 -2.07372e-13 0)
(1.78897e-13 -2.53261e-13 0)
(2.57394e-13 -2.35747e-13 0)
(1.18439e-13 -2.37579e-13 0)
(-3.79438e-14 -2.08839e-13 0)
(-1.45955e-13 -2.5543e-13 0)
(-8.2722e-14 -2.65388e-13 0)
(-3.99139e-14 -2.03049e-13 0)
(-6.92656e-14 -2.49451e-13 0)
(5.71544e-14 -2.76087e-13 0)
(1.38746e-14 -2.37619e-13 0)
(-4.70326e-14 -3.18839e-13 0)
(-1.12418e-13 -3.43684e-13 0)
(-2.0806e-14 -4.06408e-13 0)
(6.04761e-14 -3.60201e-13 0)
(-3.72377e-15 -2.95144e-13 0)
(-1.82735e-14 -2.60588e-13 0)
(1.37622e-14 -8.15567e-14 0)
(3.26426e-14 -1.5548e-13 0)
(4.79072e-14 -2.11351e-13 0)
(6.26526e-14 -1.89463e-13 0)
(1.76789e-13 -1.40486e-13 0)
(2.90726e-13 -2.42587e-13 0)
(2.32365e-13 -3.25327e-13 0)
(2.71908e-13 -3.60124e-13 0)
(4.22672e-13 -3.83958e-13 0)
(4.99695e-13 -4.40598e-13 0)
(5.06302e-13 -4.24223e-13 0)
(5.74398e-13 -2.11354e-13 0)
(8.37142e-13 -1.00901e-13 0)
(9.31889e-13 -1.5628e-13 0)
(9.8779e-13 -6.78956e-14 0)
(1.09596e-12 -9.21672e-14 0)
(1.19021e-12 -1.62243e-13 0)
(1.22509e-12 -1.31014e-13 0)
(1.26138e-12 -2.02008e-13 0)
(1.30931e-12 -1.46116e-13 0)
(1.37955e-12 -6.77003e-14 0)
(1.53534e-12 -4.37391e-14 0)
(1.7235e-12 -9.30042e-14 0)
(1.91558e-12 -9.93367e-14 0)
(1.92119e-12 -2.80201e-13 0)
(2.09639e-12 -4.15766e-13 0)
(2.36828e-12 -4.16226e-13 0)
(2.5134e-12 -5.21593e-13 0)
(-2.2003e-14 -2.94335e-13 0)
(-1.53848e-13 -2.81201e-13 0)
(-1.59863e-13 -3.95172e-13 0)
(1.27091e-14 -3.21568e-13 0)
(8.55617e-14 -2.13129e-13 0)
(-1.8103e-14 -1.82268e-13 0)
(6.01911e-14 -2.93523e-13 0)
(2.47228e-14 -2.80187e-13 0)
(-2.21076e-14 -1.9846e-13 0)
(-8.3149e-14 -2.38852e-13 0)
(-4.02296e-14 -2.97822e-13 0)
(4.6715e-14 -2.52774e-13 0)
(3.025e-15 -2.22134e-13 0)
(9.66861e-14 -1.79895e-13 0)
(9.17671e-14 -1.97546e-13 0)
(2.96533e-14 -1.56735e-13 0)
(6.79293e-14 -1.64709e-13 0)
(1.37805e-13 -2.81494e-13 0)
(2.20668e-13 -2.36757e-13 0)
(1.35842e-13 -3.0404e-13 0)
(-3.35017e-15 -3.33477e-13 0)
(-5.38732e-14 -3.88567e-13 0)
(-3.09683e-15 -3.04321e-13 0)
(5.31029e-14 -3.13707e-13 0)
(1.88589e-14 -4.27969e-13 0)
(-1.60107e-14 -4.15208e-13 0)
(-9.08679e-14 -4.22141e-13 0)
(-1.51764e-13 -3.82944e-13 0)
(-2.92375e-14 -3.02899e-13 0)
(3.23363e-14 -2.81059e-13 0)
(-7.60042e-14 -2.3962e-13 0)
(5.31315e-14 -3.7543e-13 0)
(5.36939e-14 -5.15969e-13 0)
(1.28563e-14 -4.52415e-13 0)
(-4.36046e-15 -4.60822e-13 0)
(5.41509e-14 -4.03947e-13 0)
(6.51852e-14 -2.676e-13 0)
(-3.62864e-14 -2.53583e-13 0)
(2.11951e-14 -2.77574e-13 0)
(6.97019e-14 -2.53122e-13 0)
(1.08214e-14 -2.17943e-13 0)
(2.64198e-14 -2.40831e-13 0)
(9.74901e-14 -2.81237e-13 0)
(1.42388e-13 -3.48165e-13 0)
(6.88738e-14 -3.80578e-13 0)
(-4.96741e-14 -3.38066e-13 0)
(-1.04366e-13 -2.64989e-13 0)
(-5.58374e-14 -3.1111e-13 0)
(-2.37153e-14 -4.02531e-13 0)
(2.94112e-14 -4.63438e-13 0)
(3.90224e-14 -3.76166e-13 0)
(-7.84624e-14 -3.62242e-13 0)
(-1.60672e-13 -4.3013e-13 0)
(-1.19397e-13 -4.89785e-13 0)
(-1.87433e-13 -4.3755e-13 0)
(-2.55631e-13 -3.26362e-13 0)
(-1.83574e-13 -3.64648e-13 0)
(-2.30217e-13 -3.53473e-13 0)
(-2.39419e-13 -3.03304e-13 0)
(-9.98066e-14 -2.98893e-13 0)
(-1.30294e-14 -3.36194e-13 0)
(-4.54724e-14 -3.86635e-13 0)
(-7.05264e-14 -4.38729e-13 0)
(6.94409e-14 -4.12892e-13 0)
(8.92164e-14 -3.97663e-13 0)
(-1.21755e-14 -3.12982e-13 0)
(1.49054e-15 -2.77855e-13 0)
(5.73537e-14 -3.16751e-13 0)
(1.02368e-13 -2.47075e-13 0)
(1.12685e-13 -2.5376e-13 0)
(1.13507e-13 -3.00458e-13 0)
(7.14709e-14 -3.73171e-13 0)
(4.25995e-14 -3.12555e-13 0)
(1.36589e-13 -3.13767e-13 0)
(2.16575e-13 -3.58468e-13 0)
(2.03906e-13 -3.07304e-13 0)
(7.57367e-14 -3.10352e-13 0)
(-1.26586e-13 -3.70839e-13 0)
(-1.25476e-13 -4.28358e-13 0)
(-1.36111e-13 -4.27028e-13 0)
(-9.29536e-14 -4.12747e-13 0)
(-8.60822e-15 -3.67165e-13 0)
(-9.08331e-14 -3.6658e-13 0)
(-9.86908e-14 -3.23172e-13 0)
(-4.97075e-14 -2.3396e-13 0)
(2.75746e-14 -2.10569e-13 0)
(1.40739e-13 -2.29389e-13 0)
(8.29632e-14 -2.5144e-13 0)
(1.25151e-13 -3.77967e-13 0)
(1.51693e-13 -4.08026e-13 0)
(-3.11282e-15 -3.87331e-13 0)
(-7.78009e-14 -3.78348e-13 0)
(3.04395e-14 -3.46971e-13 0)
(3.64755e-14 -2.5339e-13 0)
(9.18227e-15 -1.83571e-13 0)
(5.85401e-14 -1.43629e-13 0)
(9.01364e-14 -1.60024e-13 0)
(2.40503e-15 -2.37994e-13 0)
(-2.05563e-14 -3.72887e-13 0)
(8.90344e-16 -3.88529e-13 0)
(-7.64908e-14 -3.56809e-13 0)
(-1.61969e-13 -3.11062e-13 0)
(-1.81736e-13 -2.29058e-13 0)
(-8.29067e-14 -1.85526e-13 0)
(-5.55471e-14 -1.17549e-13 0)
(-8.62881e-14 -1.2034e-13 0)
(4.60569e-14 -2.25137e-13 0)
(5.19535e-14 -3.05756e-13 0)
(2.40194e-14 -2.3193e-13 0)
(7.83961e-14 -2.67112e-13 0)
(1.17259e-13 -3.37561e-13 0)
(1.57443e-13 -2.98668e-13 0)
(3.28427e-14 -3.56524e-13 0)
(4.81074e-14 -3.95325e-13 0)
(8.37849e-14 -3.53067e-13 0)
(-1.07389e-13 -3.4381e-13 0)
(-9.7631e-14 -3.04547e-13 0)
(-4.40863e-14 -3.58002e-13 0)
(-1.24647e-14 -2.81167e-13 0)
(3.49108e-14 -1.97908e-13 0)
(9.80805e-14 -2.15942e-13 0)
(9.44406e-14 -2.0388e-13 0)
(3.92608e-14 -1.616e-13 0)
(1.20166e-13 -2.20133e-13 0)
(1.73449e-13 -3.21679e-13 0)
(6.88614e-14 -2.66767e-13 0)
(-9.28847e-14 -2.58051e-13 0)
(-1.25357e-13 -3.10785e-13 0)
(-5.75305e-14 -3.1365e-13 0)
(-6.66245e-15 -3.13071e-13 0)
(-7.86934e-14 -2.34662e-13 0)
(2.17163e-14 -3.03199e-13 0)
(-4.39329e-14 -2.78191e-13 0)
(-1.02813e-13 -3.3657e-13 0)
(-8.34922e-14 -4.23036e-13 0)
(-6.22751e-14 -4.59977e-13 0)
(5.92382e-14 -4.90846e-13 0)
(1.26819e-14 -4.83244e-13 0)
(9.71118e-14 -3.75776e-13 0)
(1.55496e-13 -2.12825e-13 0)
(4.58925e-14 -1.60375e-13 0)
(-1.36633e-15 -1.52956e-13 0)
(8.09556e-14 -1.90895e-13 0)
(1.46025e-13 -1.25354e-13 0)
(9.91177e-14 -2.1703e-13 0)
(1.39283e-13 -4.17347e-13 0)
(2.98445e-13 -3.8081e-13 0)
(3.65996e-13 -4.39466e-13 0)
(4.72808e-13 -4.22674e-13 0)
(6.40368e-13 -4.35429e-13 0)
(7.02661e-13 -2.72608e-13 0)
(7.99165e-13 -2.90266e-13 0)
(9.2803e-13 -2.66091e-13 0)
(1.08013e-12 -2.07644e-13 0)
(1.17005e-12 -1.3121e-13 0)
(1.14143e-12 -1.81455e-13 0)
(1.19422e-12 -1.84878e-13 0)
(1.27939e-12 -2.04712e-13 0)
(1.36659e-12 -1.90725e-13 0)
(1.40085e-12 -1.8171e-13 0)
(1.48829e-12 -1.80087e-13 0)
(1.69266e-12 -2.64616e-13 0)
(1.81848e-12 -3.63313e-13 0)
(1.83834e-12 -4.05939e-13 0)
(2.08501e-12 -4.12584e-13 0)
(2.23027e-12 -4.49344e-13 0)
(2.26154e-12 -5.08466e-13 0)
(-3.5151e-14 -3.40948e-13 0)
(-1.32252e-13 -3.70879e-13 0)
(-1.79709e-13 -3.017e-13 0)
(5.69322e-14 -2.55365e-13 0)
(1.49692e-13 -2.85364e-13 0)
(1.58175e-14 -2.09865e-13 0)
(-2.41266e-14 -2.26666e-13 0)
(8.73689e-14 -2.63303e-13 0)
(-3.93845e-14 -2.13903e-13 0)
(-1.66665e-13 -3.25306e-13 0)
(-9.65402e-14 -2.99123e-13 0)
(5.44488e-14 -3.60949e-13 0)
(6.99327e-14 -2.73845e-13 0)
(1.2518e-13 -1.8522e-13 0)
(1.04004e-13 -2.9065e-13 0)
(5.89488e-14 -2.41238e-13 0)
(3.84637e-14 -1.48303e-13 0)
(1.12102e-13 -2.01566e-13 0)
(1.41957e-13 -2.99845e-13 0)
(3.07236e-14 -4.52486e-13 0)
(-5.36878e-14 -5.01562e-13 0)
(-5.99271e-15 -4.85022e-13 0)
(1.09419e-13 -4.54108e-13 0)
(-3.05973e-14 -3.93989e-13 0)
(-8.52696e-14 -4.62923e-13 0)
(-1.32617e-14 -5.10184e-13 0)
(-3.29116e-14 -5.26079e-13 0)
(-6.44841e-14 -4.51511e-13 0)
(-2.27254e-14 -3.5919e-13 0)
(2.78995e-14 -4.23695e-13 0)
(-4.17269e-14 -3.74936e-13 0)
(-6.80776e-14 -3.9374e-13 0)
(6.09037e-14 -4.40751e-13 0)
(5.52698e-14 -3.47876e-13 0)
(-1.99312e-14 -4.21721e-13 0)
(8.66737e-14 -4.13259e-13 0)
(9.57709e-14 -4.03931e-13 0)
(-6.38311e-14 -4.29261e-13 0)
(3.94426e-14 -3.32179e-13 0)
(8.38409e-14 -3.83068e-13 0)
(5.31726e-14 -3.43925e-13 0)
(7.61844e-14 -2.02873e-13 0)
(5.55116e-14 -2.53119e-13 0)
(1.09213e-13 -3.56619e-13 0)
(8.29075e-14 -3.85196e-13 0)
(-6.98301e-14 -4.24732e-13 0)
(-9.27988e-14 -3.96145e-13 0)
(-2.75087e-14 -3.9415e-13 0)
(-5.11408e-14 -3.56712e-13 0)
(4.02807e-14 -3.85196e-13 0)
(7.80625e-14 -3.78386e-13 0)
(-1.07134e-13 -3.88197e-13 0)
(-2.24404e-13 -4.15968e-13 0)
(-1.48556e-13 -4.33619e-13 0)
(-7.55507e-14 -3.79964e-13 0)
(-1.78153e-13 -2.62654e-13 0)
(-2.51812e-13 -2.7952e-13 0)
(-1.733e-13 -2.53935e-13 0)
(-1.98339e-13 -1.9695e-13 0)
(-1.4531e-13 -2.50461e-13 0)
(-9.37489e-14 -2.86894e-13 0)
(-3.20097e-14 -3.55674e-13 0)
(-3.28017e-14 -3.28555e-13 0)
(2.53995e-14 -2.97767e-13 0)
(1.46558e-13 -3.78472e-13 0)
(1.44015e-13 -3.00206e-13 0)
(-1.53056e-14 -2.36448e-13 0)
(1.00411e-14 -1.9277e-13 0)
(7.98068e-14 -1.7712e-13 0)
(4.9135e-14 -2.46789e-13 0)
(1.3103e-14 -2.98402e-13 0)
(5.75529e-14 -3.70544e-13 0)
(1.22292e-13 -2.92647e-13 0)
(1.31532e-13 -2.25774e-13 0)
(1.95185e-13 -3.36628e-13 0)
(1.97529e-13 -3.2294e-13 0)
(6.76585e-14 -3.73212e-13 0)
(-9.97541e-14 -3.38493e-13 0)
(-1.769e-13 -3.14547e-13 0)
(-1.31739e-13 -3.1803e-13 0)
(-5.57052e-14 -2.45589e-13 0)
(2.56528e-15 -2.9213e-13 0)
(-3.58053e-14 -3.28838e-13 0)
(-9.75785e-14 -2.76919e-13 0)
(-6.69604e-14 -2.49313e-13 0)
(-1.16874e-14 -2.0128e-13 0)
(7.55649e-14 -2.78594e-13 0)
(5.60766e-14 -3.70709e-13 0)
(1.0595e-13 -3.37432e-13 0)
(1.83548e-13 -3.76675e-13 0)
(1.77036e-14 -3.58925e-13 0)
(-8.74522e-14 -3.08331e-13 0)
(2.02639e-15 -3.00151e-13 0)
(8.72348e-14 -3.52511e-13 0)
(7.13463e-14 -3.22443e-13 0)
(6.84629e-14 -3.29991e-13 0)
(7.82269e-14 -3.59037e-13 0)
(-1.72513e-14 -3.3179e-13 0)
(-7.68888e-14 -2.66797e-13 0)
(1.82814e-14 -2.16881e-13 0)
(-1.03394e-13 -2.39855e-13 0)
(-1.74139e-13 -2.04259e-13 0)
(-1.84234e-13 -1.97177e-13 0)
(-7.42855e-14 -1.68864e-13 0)
(2.50768e-14 -1.73535e-13 0)
(-5.24038e-14 -8.57846e-14 0)
(-6.60719e-14 -1.3643e-13 0)
(3.22412e-14 -2.21058e-13 0)
(7.76187e-14 -1.6567e-13 0)
(3.30546e-14 -2.33568e-13 0)
(1.44207e-13 -2.50368e-13 0)
(8.39054e-14 -2.60301e-13 0)
(-5.784e-15 -2.92566e-13 0)
(9.06928e-14 -2.13036e-13 0)
(1.37792e-13 -2.54537e-13 0)
(-1.49932e-14 -2.15049e-13 0)
(-1.20013e-13 -1.57361e-13 0)
(-6.75235e-14 -2.06531e-13 0)
(8.60482e-15 -2.33165e-13 0)
(2.33292e-14 -2.1881e-13 0)
(5.66531e-14 -2.58795e-13 0)
(7.88022e-14 -3.07046e-13 0)
(6.68231e-14 -3.56335e-13 0)
(1.94083e-14 -3.58545e-13 0)
(1.35589e-13 -4.09716e-13 0)
(1.09735e-13 -4.6746e-13 0)
(-6.93882e-14 -4.13285e-13 0)
(-1.92421e-13 -3.92085e-13 0)
(-1.03328e-13 -3.61762e-13 0)
(6.58309e-14 -4.1767e-13 0)
(-1.66034e-14 -3.15556e-13 0)
(-3.36996e-14 -3.45523e-13 0)
(-1.01357e-14 -3.9866e-13 0)
(-1.3763e-13 -3.8975e-13 0)
(-1.68875e-13 -4.06737e-13 0)
(-8.39207e-14 -3.80601e-13 0)
(3.06485e-14 -3.78342e-13 0)
(9.61648e-14 -3.94699e-13 0)
(1.99122e-13 -3.01857e-13 0)
(1.78825e-13 -3.43116e-13 0)
(8.33957e-14 -2.97746e-13 0)
(2.73398e-14 -2.21522e-13 0)
(5.9278e-14 -2.19545e-13 0)
(1.00294e-13 -2.75462e-13 0)
(1.78684e-14 -3.32805e-13 0)
(5.11026e-14 -3.88092e-13 0)
(2.7961e-13 -4.1812e-13 0)
(4.11566e-13 -4.56329e-13 0)
(4.78775e-13 -4.89929e-13 0)
(6.57389e-13 -5.12488e-13 0)
(7.2223e-13 -4.38014e-13 0)
(7.36851e-13 -4.37701e-13 0)
(9.48117e-13 -3.95884e-13 0)
(1.15782e-12 -3.59195e-13 0)
(1.20122e-12 -2.93867e-13 0)
(1.15285e-12 -2.33102e-13 0)
(1.22768e-12 -1.61702e-13 0)
(1.29986e-12 -6.41247e-14 0)
(1.31245e-12 -8.53117e-14 0)
(1.3369e-12 -1.8846e-13 0)
(1.40839e-12 -2.09057e-13 0)
(1.5645e-12 -2.57015e-13 0)
(1.76088e-12 -3.82509e-13 0)
(1.88142e-12 -3.43881e-13 0)
(2.00807e-12 -4.74271e-13 0)
(2.17748e-12 -5.46028e-13 0)
(2.17241e-12 -4.49358e-13 0)
(-4.06367e-14 -1.96979e-13 0)
(-9.61017e-14 -1.86671e-13 0)
(-8.45553e-14 -1.62795e-13 0)
(4.22758e-14 -1.50265e-13 0)
(1.53356e-13 -1.72627e-13 0)
(4.59604e-14 -1.60255e-13 0)
(-2.2427e-14 -1.14221e-13 0)
(4.7284e-14 -1.89247e-13 0)
(-6.08843e-14 -2.36136e-13 0)
(-1.35431e-13 -2.33427e-13 0)
(-5.41646e-14 -1.65726e-13 0)
(4.91131e-14 -2.13548e-13 0)
(9.3312e-14 -1.95302e-13 0)
(7.49698e-14 -2.84573e-13 0)
(5.36444e-14 -2.80328e-13 0)
(1.3844e-13 -1.792e-13 0)
(8.70568e-14 -1.32408e-13 0)
(5.45523e-15 -1.65689e-13 0)
(4.51462e-14 -3.13008e-13 0)
(-5.27689e-14 -3.67669e-13 0)
(-1.15244e-13 -4.10249e-13 0)
(-4.28301e-14 -4.1604e-13 0)
(1.00552e-13 -4.77431e-13 0)
(5.33418e-14 -4.55106e-13 0)
(-7.13817e-14 -3.02012e-13 0)
(-6.70864e-14 -2.59326e-13 0)
(-3.26328e-14 -2.61659e-13 0)
(-5.70975e-14 -3.31189e-13 0)
(-1.97029e-14 -3.94122e-13 0)
(1.27595e-14 -3.32126e-13 0)
(1.03071e-14 -3.18066e-13 0)
(-2.05623e-14 -3.0219e-13 0)
(9.30509e-14 -3.0339e-13 0)
(4.76921e-14 -2.84107e-13 0)
(-5.16012e-14 -2.3408e-13 0)
(7.32585e-14 -1.96491e-13 0)
(6.56794e-14 -2.73383e-13 0)
(1.66687e-14 -3.24859e-13 0)
(9.05369e-14 -2.93619e-13 0)
(3.30049e-14 -1.99156e-13 0)
(1.40765e-13 -1.53208e-13 0)
(1.27653e-13 -1.33745e-13 0)
(-1.88522e-14 -1.51901e-13 0)
(2.58861e-14 -2.34123e-13 0)
(1.67375e-14 -3.47183e-13 0)
(-9.3916e-14 -3.55217e-13 0)
(-9.42637e-14 -4.15121e-13 0)
(2.15567e-14 -4.40749e-13 0)
(-5.57194e-15 -3.85663e-13 0)
(-7.09509e-15 -2.86282e-13 0)
(3.14357e-14 -3.09392e-13 0)
(-7.26643e-14 -2.70701e-13 0)
(-1.53018e-13 -2.35073e-13 0)
(-7.71361e-14 -2.50687e-13 0)
(-3.12614e-14 -2.49921e-13 0)
(-1.68429e-13 -2.28581e-13 0)
(-2.37971e-13 -1.35341e-13 0)
(-1.38772e-13 -1.1841e-13 0)
(-1.77559e-13 -6.35769e-14 0)
(-1.83173e-13 -5.58798e-14 0)
(-9.05728e-14 -6.94874e-14 0)
(-6.72718e-14 -5.14271e-14 0)
(1.98138e-16 -1.25449e-13 0)
(3.63542e-14 -5.95102e-14 0)
(9.2674e-14 -6.34413e-14 0)
(1.0713e-13 -9.97101e-14 0)
(5.57269e-14 -1.2043e-13 0)
(5.62964e-14 -2.57041e-14 0)
(4.52818e-14 -6.54521e-14 0)
(1.88685e-14 -5.22325e-14 0)
(-2.17404e-14 -1.16039e-13 0)
(5.65776e-14 -1.66831e-13 0)
(1.83351e-13 -1.17597e-13 0)
(1.09797e-13 -7.66321e-14 0)
(1.16347e-13 -9.4269e-14 0)
(1.63778e-13 -1.35697e-13 0)
(8.44522e-14 -2.23207e-13 0)
(-4.49439e-14 -2.17102e-13 0)
(-1.3296e-13 -1.88463e-13 0)
(-7.73509e-14 -1.46625e-13 0)
(-7.25313e-14 -1.73625e-13 0)
(-6.88769e-14 -2.33049e-13 0)
(-1.67124e-14 -2.33895e-13 0)
(-3.76057e-14 -1.48493e-13 0)
(-8.00828e-14 -9.42205e-14 0)
(-4.56191e-14 -7.55798e-14 0)
(-1.87017e-14 -1.64486e-13 0)
(7.26436e-14 -2.95158e-13 0)
(1.43657e-13 -2.47883e-13 0)
(1.40602e-13 -3.01413e-13 0)
(7.73094e-14 -2.8575e-13 0)
(-2.77102e-14 -2.05716e-13 0)
(-5.73659e-14 -2.18355e-13 0)
(1.89625e-14 -2.14034e-13 0)
(6.74734e-14 -2.39642e-13 0)
(3.48223e-14 -2.65778e-13 0)
(1.02183e-13 -3.37687e-13 0)
(7.39802e-14 -1.99603e-13 0)
(2.85039e-14 -1.16702e-13 0)
(-1.86156e-14 -1.22525e-13 0)
(-6.60096e-14 -1.86049e-13 0)
(-1.41974e-13 -1.29949e-13 0)
(-1.48446e-13 -6.51401e-14 0)
(-8.06916e-14 -8.9919e-14 0)
(6.65548e-15 -1.18668e-13 0)
(-2.99068e-14 -1.57753e-13 0)
(-8.4678e-14 -3.90601e-14 0)
(-5.79192e-15 -3.55387e-14 0)
(1.90405e-14 -8.39098e-14 0)
(4.24643e-14 -1.14759e-13 0)
(1.04134e-13 -6.27781e-14 0)
(9.85934e-14 -1.70624e-13 0)
(1.46592e-13 -1.50592e-13 0)
(1.3375e-13 -5.22316e-14 0)
(7.34573e-14 -1.59007e-13 0)
(2.76559e-14 -1.19924e-13 0)
(-9.76172e-14 -1.22317e-13 0)
(-1.2017e-13 -9.20178e-14 0)
(-3.39514e-14 -1.22666e-13 0)
(-6.3982e-14 -1.56046e-13 0)
(9.54535e-15 -2.04634e-13 0)
(6.82463e-14 -1.78571e-13 0)
(5.94141e-14 -1.9692e-13 0)
(3.87013e-14 -1.9942e-13 0)
(5.23338e-14 -2.21883e-13 0)
(3.93248e-14 -2.78969e-13 0)
(-3.82094e-14 -2.72418e-13 0)
(-9.25451e-14 -2.94832e-13 0)
(-6.93524e-14 -2.15393e-13 0)
(1.77959e-14 -1.5148e-13 0)
(2.30737e-14 -2.09509e-13 0)
(-3.13635e-14 -1.66554e-13 0)
(-4.06297e-14 -2.12146e-13 0)
(-8.54935e-14 -2.35004e-13 0)
(-1.22785e-13 -2.04062e-13 0)
(-7.84088e-14 -2.09293e-13 0)
(2.62329e-14 -2.60662e-13 0)
(1.52433e-13 -2.20712e-13 0)
(1.85924e-13 -1.93731e-13 0)
(1.45217e-13 -1.76764e-13 0)
(1.5634e-13 -1.49688e-13 0)
(5.33917e-14 -1.45402e-13 0)
(2.29527e-14 -7.77103e-14 0)
(3.09248e-14 -1.85711e-13 0)
(-6.1902e-14 -2.44088e-13 0)
(2.80108e-14 -2.60023e-13 0)
(2.27767e-13 -2.9608e-13 0)
(3.61609e-13 -4.14917e-13 0)
(4.59282e-13 -4.31366e-13 0)
(6.21871e-13 -3.93494e-13 0)
(7.1316e-13 -4.98592e-13 0)
(8.28933e-13 -4.22966e-13 0)
(1.0492e-12 -3.80174e-13 0)
(1.17935e-12 -2.62986e-13 0)
(1.26849e-12 -1.94323e-13 0)
(1.22658e-12 -1.18708e-13 0)
(1.31626e-12 -6.17887e-14 0)
(1.3353e-12 2.42008e-14 0)
(1.22395e-12 8.83443e-14 0)
(1.24358e-12 2.82651e-14 0)
(1.3756e-12 -8.97243e-14 0)
(1.55567e-12 -1.14241e-13 0)
(1.72178e-12 -2.41739e-13 0)
(1.78428e-12 -3.5324e-13 0)
(1.8013e-12 -4.56838e-13 0)
(2.06721e-12 -5.43139e-13 0)
(2.11752e-12 -6.28244e-13 0)
(1.81633e-14 -1.14919e-13 0)
(-8.55222e-14 -6.56733e-14 0)
(-9.69095e-14 -9.213e-14 0)
(4.22615e-14 -4.19207e-14 0)
(1.28628e-13 -1.1899e-13 0)
(7.80963e-14 -1.81931e-13 0)
(1.01202e-14 -1.29575e-13 0)
(-1.07966e-14 -1.75913e-13 0)
(-5.71628e-14 -2.11145e-13 0)
(-1.11964e-13 -1.79085e-13 0)
(-1.06829e-13 -1.36296e-13 0)
(2.87287e-15 -1.88272e-13 0)
(3.84597e-14 -2.38698e-13 0)
(1.15426e-14 -2.82496e-13 0)
(1.75638e-13 -2.52226e-13 0)
(2.03791e-13 -1.65842e-13 0)
(5.25716e-14 -2.33365e-13 0)
(-4.5102e-14 -1.78069e-13 0)
(-4.47063e-14 -2.41324e-13 0)
(-1.09463e-13 -2.87367e-13 0)
(-1.36504e-13 -3.35191e-13 0)
(-5.24264e-14 -2.53619e-13 0)
(8.05591e-14 -2.74905e-13 0)
(1.25224e-13 -3.56723e-13 0)
(9.74613e-14 -2.31692e-13 0)
(-2.99221e-14 -1.53541e-13 0)
(-7.59801e-14 -2.26413e-13 0)
(-1.41955e-13 -2.40059e-13 0)
(9.17086e-15 -2.85897e-13 0)
(7.551e-14 -2.36892e-13 0)
(-8.11811e-15 -1.71515e-13 0)
(-6.82374e-14 -1.80858e-13 0)
(3.42293e-14 -2.36035e-13 0)
(8.65003e-14 -3.29912e-13 0)
(5.05524e-14 -2.43812e-13 0)
(7.26771e-14 -1.90327e-13 0)
(-3.81716e-15 -2.02511e-13 0)
(-3.1528e-14 -2.55845e-13 0)
(1.6165e-13 -2.13809e-13 0)
(1.51754e-13 -1.57807e-13 0)
(9.64912e-14 -1.0476e-13 0)
(6.0699e-14 -2.49242e-13 0)
(-1.32511e-14 -2.19657e-13 0)
(-4.74187e-14 -2.5478e-13 0)
(-5.46146e-14 -2.55321e-13 0)
(-1.27716e-13 -2.65912e-13 0)
(-1.58602e-13 -2.70442e-13 0)
(-1.51334e-14 -3.23884e-13 0)
(4.86355e-14 -3.15196e-13 0)
(1.15174e-13 -2.66489e-13 0)
(6.13621e-14 -2.0706e-13 0)
(-5.97498e-14 -2.04477e-13 0)
(-1.55495e-13 -2.47619e-13 0)
(-1.42287e-13 -1.50909e-13 0)
(-2.13863e-14 -1.84786e-13 0)
(-9.94205e-14 -2.14317e-13 0)
(-1.44121e-13 -1.48552e-13 0)
(-1.09265e-13 -1.06741e-13 0)
(-1.91956e-13 -1.35908e-13 0)
(-1.42182e-13 -1.19414e-13 0)
(-9.21046e-14 -1.76122e-14 0)
(-1.23277e-13 -3.83438e-14 0)
(-6.29149e-16 -1.3189e-14 0)
(1.30237e-13 3.32979e-15 0)
(1.02121e-13 -3.2878e-14 0)
(7.71913e-14 -6.06835e-14 0)
(5.05268e-14 -1.09526e-13 0)
(4.3792e-14 -7.06958e-14 0)
(3.78647e-14 -9.76971e-14 0)
(-2.5584e-14 -9.21932e-14 0)
(-9.9066e-14 -7.426e-14 0)
(6.85436e-14 -9.75602e-14 0)
(2.23408e-13 -8.99092e-14 0)
(1.58994e-13 -1.05856e-13 0)
(1.51849e-13 -2.42746e-14 0)
(1.01943e-13 -5.91717e-14 0)
(-1.72923e-14 -1.1225e-13 0)
(-1.08171e-13 -1.82492e-13 0)
(-1.26175e-13 -1.43331e-13 0)
(-1.13772e-13 -2.3039e-13 0)
(-1.32637e-13 -3.32846e-13 0)
(-3.36309e-14 -2.90994e-13 0)
(6.08671e-14 -2.38535e-13 0)
(5.16663e-14 -1.6059e-13 0)
(-1.63625e-14 -1.50603e-13 0)
(-9.56202e-14 -1.30789e-13 0)
(-1.36224e-13 -1.05788e-13 0)
(-1.42117e-14 -2.05132e-13 0)
(1.42564e-13 -2.89678e-13 0)
(1.6915e-13 -2.38653e-13 0)
(7.48525e-14 -2.65028e-13 0)
(-5.1641e-15 -3.47887e-13 0)
(5.16869e-14 -2.67887e-13 0)
(5.21331e-14 -1.90863e-13 0)
(1.46764e-14 -2.61819e-13 0)
(-2.87712e-14 -2.16822e-13 0)
(1.13659e-13 -2.01011e-13 0)
(1.83969e-13 -2.11587e-13 0)
(4.89816e-14 -1.90523e-13 0)
(4.62066e-15 -1.92043e-13 0)
(-8.3732e-14 -1.46819e-13 0)
(-1.07893e-13 -7.61903e-14 0)
(-1.72093e-13 -6.35883e-14 0)
(-1.26461e-13 -3.46736e-14 0)
(-4.24078e-14 -1.14637e-13 0)
(2.36403e-14 -1.96098e-13 0)
(4.89047e-14 -1.10585e-13 0)
(-1.60703e-14 -9.1602e-14 0)
(3.56953e-15 -1.47831e-13 0)
(9.73449e-14 -1.25621e-13 0)
(6.93363e-14 -8.11887e-14 0)
(2.32682e-14 -1.92366e-14 0)
(1.32261e-13 -4.0767e-14 0)
(1.19736e-13 -1.0865e-13 0)
(7.10365e-14 -1.71369e-13 0)
(5.44808e-14 -1.54473e-13 0)
(-4.61598e-14 -1.83453e-13 0)
(-6.0297e-14 -1.41243e-13 0)
(-4.61231e-14 -1.35579e-13 0)
(-1.15439e-13 -1.21672e-13 0)
(-1.66561e-14 -1.43818e-13 0)
(1.01331e-13 -1.8746e-13 0)
(7.35202e-14 -1.3902e-13 0)
(-9.95485e-15 -1.85023e-13 0)
(6.25639e-14 -2.45542e-13 0)
(2.7151e-14 -1.68821e-13 0)
(-9.44588e-14 -1.24233e-13 0)
(-1.43503e-13 -1.77681e-13 0)
(6.88457e-15 -1.23381e-13 0)
(3.76892e-14 -1.10631e-13 0)
(-5.95617e-15 -2.16e-13 0)
(-1.82565e-14 -1.71935e-13 0)
(-1.16852e-13 -1.42567e-13 0)
(-9.21221e-14 -1.37525e-13 0)
(-1.4397e-13 -8.02737e-14 0)
(-1.64244e-13 -1.0211e-14 0)
(7.89994e-16 -1.69715e-14 0)
(1.34485e-13 -3.58394e-14 0)
(2.90155e-13 -1.0977e-13 0)
(2.34154e-13 -1.05833e-13 0)
(1.59912e-13 -8.31629e-14 0)
(6.12781e-14 -8.87905e-14 0)
(-7.19824e-15 -4.06956e-14 0)
(-6.80161e-14 -1.04192e-13 0)
(-1.24504e-13 -1.25705e-13 0)
(-5.5705e-14 -2.44231e-13 0)
(1.27169e-13 -2.40424e-13 0)
(3.16552e-13 -2.84616e-13 0)
(4.93552e-13 -3.42068e-13 0)
(5.90434e-13 -2.36946e-13 0)
(7.24628e-13 -2.97882e-13 0)
(8.93621e-13 -2.20571e-13 0)
(1.10703e-12 -2.67572e-13 0)
(1.26582e-12 -1.95151e-13 0)
(1.30829e-12 -1.8399e-13 0)
(1.28385e-12 -1.59121e-13 0)
(1.33459e-12 -1.09129e-13 0)
(1.41023e-12 -6.32374e-14 0)
(1.34373e-12 2.19523e-14 0)
(1.18625e-12 2.94024e-14 0)
(1.256e-12 -4.01721e-14 0)
(1.44188e-12 -8.17084e-14 0)
(1.60792e-12 -1.54468e-13 0)
(1.66039e-12 -2.3878e-13 0)
(1.64168e-12 -2.98622e-13 0)
(1.79072e-12 -4.27111e-13 0)
(1.89142e-12 -5.50446e-13 0)
(9.10267e-14 -3.35395e-13 0)
(-8.267e-14 -2.92872e-13 0)
(-5.35358e-14 -2.28043e-13 0)