/*--------------------------------*- C++ -*----------------------------------*\
  =========                 |
  \\      /  F ield         | OpenFOAM: The Open Source CFD Toolbox
   \\    /   O peration     | Website:  https://openfoam.org
    \\  /    A nd           | Version:  13
     \\/     M anipulation  |
\*---------------------------------------------------------------------------*/
FoamFile
{
    format      ascii;
    class       volScalarField;
    location    "0.002";
    object      CH4;
}
// * * * * * * * * * * * * * * * * * * * * * * * * * * * * * * * * * * * * * //

dimensions      [];

internalField   nonuniform List<scalar> 
33334
(
2.73639e-31
2.75918e-31
2.85516e-31
3.10272e-31
3.61472e-31
4.56221e-31
6.22983e-31
9.13307e-31
1.42666e-30
2.36699e-30
4.17577e-30
7.83819e-30
1.56183e-29
3.28416e-29
7.2244e-29
1.64581e-28
3.84387e-28
9.11909e-28
2.17974e-27
5.21346e-27
1.24073e-26
2.92593e-26
6.82048e-26
1.57039e-25
3.57428e-25
8.05784e-25
1.80383e-24
4.01583e-24
8.90493e-24
1.96742e-23
4.32501e-23
9.43329e-23
2.03379e-22
4.31719e-22
8.99018e-22
1.831e-21
3.63852e-21
7.04157e-21
1.32514e-20
2.42176e-20
4.29274e-20
7.37166e-20
1.2251e-19
1.96878e-19
3.05784e-19
4.58878e-19
6.65243e-19
9.31705e-19
1.26131e-18
1.65306e-18
2.10394e-18
2.61361e-18
3.18416e-18
3.80279e-18
4.40123e-18
4.83638e-18
5.00295e-18
4.98972e-18
4.89328e-18
4.67628e-18
4.34664e-18
3.9346e-18
3.47629e-18
3.0083e-18
2.56463e-18
2.17178e-18
1.84418e-18
1.58348e-18
1.38213e-18
1.22851e-18
1.11106e-18
1.02027e-18
9.49069e-19
8.92438e-19
8.46871e-19
8.09827e-19
7.79407e-19
7.54011e-19
7.32179e-19
7.12662e-19
6.94114e-19
6.76118e-19
6.58502e-19
6.42039e-19
6.2728e-19
6.1451e-19
6.03514e-19
5.94026e-19
5.85922e-19
5.79209e-19
5.7394e-19
5.70164e-19
5.67935e-19
5.67149e-19
5.67894e-19
5.70566e-19
5.75139e-19
5.81633e-19
5.90211e-19
6.0093e-19
6.13811e-19
6.29012e-19
6.46852e-19
6.67883e-19
6.92794e-19
7.2237e-19
7.57457e-19
7.98895e-19
8.47541e-19
9.04522e-19
9.71537e-19
1.05105e-18
1.14628e-18
1.26114e-18
1.40024e-18
1.56899e-18
1.77416e-18
2.02523e-18
2.33636e-18
2.72932e-18
3.23826e-18
3.9165e-18
4.84702e-18
6.16066e-18
8.0657e-18
1.09051e-17
1.52634e-17
2.21603e-17
3.34069e-17
5.21894e-17
8.38655e-17
1.36468e-16
2.18645e-16
3.30505e-16
4.42438e-16
4.89387e-16
4.44127e-16
3.71017e-16
3.58359e-16
6.35008e-16
4.43432e-15
1.04469e-13
4.10535e-12
1.55634e-10
4.68848e-09
1.11958e-07
2.01868e-05
0.00839829
0.0419141
0.0498569
0.0499999
0.05
0.05
0.05
0.05
0.05
0.05
0.05
0.05
0.05
0.05
0.05
0.05
0.05
0.05
0.05
2.75918e-31
2.78231e-31
2.8794e-31
3.129e-31
3.64353e-31
4.59266e-31
6.25786e-31
9.14932e-31
1.42578e-30
2.36199e-30
4.16235e-30
7.80642e-30
1.55458e-29
3.26772e-29
7.1867e-29
1.63699e-28
3.82274e-28
9.06748e-28
2.16697e-27
5.18175e-27
1.23288e-26
2.90664e-26
6.77379e-26
1.55931e-25
3.54826e-25
7.99322e-25
1.78555e-24
3.96641e-24
8.77834e-24
1.93629e-23
4.25092e-23
9.26231e-23
1.99556e-22
4.23456e-22
8.8179e-22
1.79643e-21
3.57182e-21
6.91794e-21
1.30313e-20
2.38405e-20
4.23059e-20
7.27319e-20
1.21013e-19
1.94702e-19
3.02775e-19
4.54946e-19
6.60432e-19
9.26174e-19
1.25508e-18
1.64584e-18
2.09572e-18
2.60432e-18
3.17363e-18
3.79165e-18
4.39347e-18
4.84e-18
5.01841e-18
5.01012e-18
4.92226e-18
4.71338e-18
4.38937e-18
3.98002e-18
3.52156e-18
3.05082e-18
2.60234e-18
2.20348e-18
1.86967e-18
1.60337e-18
1.39743e-18
1.24026e-18
1.12014e-18
1.02735e-18
9.54649e-19
8.96876e-19
8.50382e-19
8.12609e-19
7.8163e-19
7.55812e-19
7.33664e-19
7.13755e-19
6.94822e-19
6.76446e-19
6.58751e-19
6.42262e-19
6.2757e-19
6.14782e-19
6.03699e-19
5.94137e-19
5.86009e-19
5.79304e-19
5.74032e-19
5.70226e-19
5.67921e-19
5.67017e-19
5.67555e-19
5.69927e-19
5.74224e-19
5.8047e-19
5.88839e-19
5.99397e-19
6.12176e-19
6.27282e-19
6.45017e-19
6.65861e-19
6.90459e-19
7.19606e-19
7.54134e-19
7.94838e-19
8.42587e-19
8.98525e-19
9.64248e-19
1.04203e-18
1.135e-18
1.24694e-18
1.38246e-18
1.54706e-18
1.74755e-18
1.99347e-18
2.2988e-18
2.68464e-18
3.18422e-18
3.84943e-18
4.76106e-18
6.04686e-18
7.91023e-18
1.06859e-17
1.49467e-17
2.16917e-17
3.26932e-17
5.10804e-17
8.21285e-17
1.33811e-16
2.14906e-16
3.25998e-16
4.38673e-16
4.881e-16
4.44204e-16
3.70715e-16
3.58335e-16
6.39529e-16
4.47386e-15
1.04882e-13
4.09781e-12
1.52866e-10
4.5855e-09
1.04939e-07
2.05054e-05
0.00858909
0.0419947
0.0498615
0.0499999
0.05
0.05
0.05
0.05
0.05
0.05
0.05
0.05
0.05
0.05
0.05
0.05
0.05
0.05
0.05
2.85516e-31
2.8794e-31
2.98109e-31
3.24117e-31
3.77397e-31
4.7503e-31
6.45156e-31
9.38892e-31
1.45665e-30
2.40587e-30
4.23106e-30
7.92409e-30
1.57651e-29
3.31164e-29
7.2794e-29
1.65717e-28
3.86727e-28
9.16556e-28
2.18831e-27
5.22714e-27
1.24224e-26
2.92519e-26
6.80847e-26
1.56515e-25
3.55563e-25
7.99239e-25
1.78081e-24
3.94661e-24
8.71701e-24
1.91957e-23
4.20862e-23
9.16098e-23
1.9724e-22
4.18393e-22
8.71208e-22
1.7753e-21
3.53159e-21
6.84484e-21
1.29044e-20
2.36301e-20
4.19721e-20
7.22258e-20
1.20283e-19
1.9371e-19
3.01528e-19
4.5354e-19
6.59108e-19
9.25349e-19
1.25531e-18
1.64769e-18
2.09968e-18
2.61051e-18
3.18187e-18
3.80353e-18
4.41652e-18
4.88559e-18
5.08346e-18
5.08421e-18
5.01019e-18
4.81292e-18
4.49473e-18
4.08503e-18
3.6209e-18
3.14031e-18
2.67921e-18
2.2667e-18
1.91993e-18
1.64249e-18
1.42764e-18
1.26365e-18
1.13837e-18
1.04167e-18
9.65965e-19
9.05814e-19
8.5741e-19
8.18131e-19
7.85947e-19
7.59094e-19
7.35954e-19
7.1506e-19
6.95371e-19
6.76279e-19
6.58024e-19
6.41064e-19
6.26126e-19
6.13347e-19
6.02485e-19
5.93223e-19
5.85348e-19
5.78782e-19
5.73532e-19
5.69642e-19
5.6713e-19
5.65939e-19
5.66071e-19
5.67851e-19
5.71613e-19
5.77388e-19
5.85365e-19
5.95637e-19
6.08227e-19
6.23191e-19
6.40755e-19
6.61307e-19
6.85422e-19
7.13838e-19
7.4734e-19
7.86716e-19
8.32851e-19
8.86842e-19
9.50099e-19
1.02466e-18
1.1134e-18
1.2198e-18
1.34844e-18
1.50501e-18
1.69661e-18
1.93294e-18
2.22781e-18
2.60174e-18
3.08661e-18
3.73184e-18
4.61473e-18
5.85858e-18
7.66206e-18
1.03531e-17
1.44946e-17
2.10697e-17
3.18207e-17
4.98186e-17
8.02461e-17
1.30952e-16
2.10636e-16
3.19983e-16
4.31043e-16
4.79832e-16
4.36335e-16
3.63566e-16
3.50112e-16
6.24204e-16
4.35667e-15
1.02693e-13
4.09432e-12
1.5676e-10
4.83112e-09
1.03294e-07
2.32585e-05
0.00933378
0.042351
0.049874
0.0499999
0.05
0.05
0.05
0.05
0.05
0.05
0.05
0.05
0.05
0.05
0.05
0.05
0.05
0.05
0.05
3.10272e-31
3.129e-31
3.24117e-31
3.52724e-31
4.10992e-31
5.1709e-31
7.00747e-31
1.0159e-30
1.56854e-30
2.57779e-30
4.51362e-30
8.42223e-30
1.67034e-29
3.49887e-29
7.67034e-29
1.74146e-28
4.0525e-28
9.57583e-28
2.27906e-27
5.42624e-27
1.28532e-26
3.01654e-26
6.99651e-26
1.60207e-25
3.62321e-25
8.10863e-25
1.80155e-24
3.9834e-24
8.7812e-24
1.93064e-23
4.22773e-23
9.1949e-23
1.9788e-22
4.19706e-22
8.74114e-22
1.782e-21
3.54702e-21
6.87943e-21
1.29787e-20
2.37822e-20
4.22692e-20
7.27809e-20
1.2128e-19
1.95441e-19
3.04435e-19
4.58274e-19
6.66597e-19
9.36961e-19
1.27317e-18
1.67465e-18
2.13802e-18
2.66161e-18
3.24694e-18
3.88732e-18
4.53048e-18
5.03785e-18
5.26403e-18
5.27691e-18
5.21e-18
5.01934e-18
4.69876e-18
4.27687e-18
3.79342e-18
3.28926e-18
2.80303e-18
2.36639e-18
1.99843e-18
1.70371e-18
1.47542e-18
1.3012e-18
1.16813e-18
1.06541e-18
9.8496e-19
9.20957e-19
8.69401e-19
8.27538e-19
7.93192e-19
7.64457e-19
7.39625e-19
7.17235e-19
6.96364e-19
6.76559e-19
6.57966e-19
6.40818e-19
6.25649e-19
6.12695e-19
6.01789e-19
5.92578e-19
5.8477e-19
5.78231e-19
5.72947e-19
5.68957e-19
5.66285e-19
5.64911e-19
5.64806e-19
5.66252e-19
5.69705e-19
5.75226e-19
5.83003e-19
5.93143e-19
6.05664e-19
6.20595e-19
6.38114e-19
6.58555e-19
6.8245e-19
7.10485e-19
7.4341e-19
7.82021e-19
8.27222e-19
8.80068e-19
9.41871e-19
1.01434e-18
1.09974e-18
1.20155e-18
1.3245e-18
1.47457e-18
1.65932e-18
1.8888e-18
2.17707e-18
2.54486e-18
3.02371e-18
3.662e-18
4.53509e-18
5.76287e-18
7.54168e-18
1.02016e-17
1.43067e-17
2.08425e-17
3.15559e-17
4.9521e-17
7.993e-17
1.3064e-16
2.10355e-16
3.19661e-16
4.30182e-16
4.77943e-16
4.34135e-16
3.61861e-16
3.49043e-16
6.28449e-16
4.49938e-15
1.08721e-13
4.4387e-12
1.75245e-10
5.58704e-09
1.23588e-07
3.03849e-05
0.0105564
0.04289
0.0498904
0.05
0.05
0.05
0.05
0.05
0.05
0.05
0.05
0.05
0.05
0.05
0.05
0.05
0.05
0.05
0.05
3.61472e-31
3.64353e-31
3.77397e-31
4.10992e-31
4.79366e-31
6.03481e-31
8.17489e-31
1.183e-30
1.82023e-30
2.97664e-30
5.18221e-30
9.61158e-30
1.8945e-29
3.94376e-29
8.59175e-29
1.93852e-28
4.4831e-28
1.05277e-27
2.49021e-27
5.89326e-27
1.38775e-26
3.23812e-26
7.46602e-26
1.6989e-25
3.81748e-25
8.49098e-25
1.87591e-24
4.1279e-24
9.0636e-24
1.98649e-23
4.34018e-23
9.42638e-23
2.02749e-22
4.30112e-22
8.96475e-22
1.82972e-21
3.64706e-21
7.08356e-21
1.33821e-20
2.45521e-20
4.36879e-20
7.53091e-20
1.25646e-19
2.02761e-19
3.16365e-19
4.7718e-19
6.95738e-19
9.80628e-19
1.3366e-18
1.76351e-18
2.25793e-18
2.81771e-18
3.44481e-18
4.13488e-18
4.83585e-18
5.39688e-18
5.6542e-18
5.67538e-18
5.60647e-18
5.40628e-18
5.06306e-18
4.60598e-18
4.07926e-18
3.5287e-18
2.99743e-18
2.52065e-18
2.11943e-18
1.7986e-18
1.55045e-18
1.36124e-18
1.21671e-18
1.10503e-18
1.0174e-18
9.47527e-19
8.91083e-19
8.45077e-19
8.07152e-19
7.75287e-19
7.47752e-19
7.23191e-19
7.008e-19
6.80161e-19
6.6118e-19
6.43903e-19
6.2854e-19
6.15296e-19
6.04108e-19
5.94686e-19
5.86737e-19
5.80088e-19
5.74687e-19
5.70544e-19
5.67689e-19
5.66153e-19
5.65898e-19
5.67196e-19
5.70577e-19
5.76124e-19
5.84003e-19
5.94319e-19
6.0708e-19
6.22292e-19
6.40092e-19
6.60777e-19
6.8484e-19
7.12919e-19
7.45741e-19
7.8412e-19
8.28964e-19
8.81295e-19
9.42353e-19
1.01372e-18
1.09756e-18
1.19739e-18
1.31804e-18
1.46562e-18
1.64795e-18
1.87532e-18
2.16205e-18
2.52929e-18
3.00897e-18
3.64986e-18
4.52803e-18
5.76438e-18
7.55781e-18
1.02445e-17
1.43986e-17
2.10251e-17
3.19057e-17
5.01788e-17
8.11535e-17
1.32853e-16
2.14154e-16
3.25529e-16
4.37653e-16
4.85551e-16
4.41082e-16
3.68777e-16
3.58794e-16
6.60208e-16
4.87602e-15
1.20145e-13
4.91461e-12
1.93955e-10
6.27465e-09
1.3963e-07
3.81594e-05
0.0118578
0.0434005
0.0499048
0.05
0.05
0.05
0.05
0.05
0.05
0.05
0.05
0.05
0.05
0.05
0.05
0.05
0.05
0.05
0.05
4.56221e-31
4.59266e-31
4.7503e-31
5.1709e-31
6.03481e-31
7.6045e-31
1.03058e-30
1.49023e-30
2.28718e-30
3.72335e-30
6.44134e-30
1.1855e-29
2.31646e-29
4.77762e-29
1.03099e-28
2.30426e-28
5.2796e-28
1.22864e-27
2.88095e-27
6.76116e-27
1.57944e-26
3.65698e-26
8.36796e-26
1.88994e-25
4.21607e-25
9.31279e-25
2.04386e-24
4.47098e-24
9.76887e-24
2.13303e-23
4.64833e-23
1.00811e-22
2.16743e-22
4.59997e-22
9.59764e-22
1.96164e-21
3.91599e-21
7.61738e-21
1.44109e-20
2.64745e-20
4.71707e-20
8.14309e-20
1.36097e-19
2.20102e-19
3.44335e-19
5.21012e-19
7.62368e-19
1.07864e-18
1.47578e-18
1.95432e-18
2.51131e-18
3.14523e-18
3.85895e-18
4.6466e-18
5.44536e-18
6.08011e-18
6.36593e-18
6.38533e-18
6.3037e-18
6.06917e-18
5.67106e-18
5.14385e-18
4.53831e-18
3.90756e-18
3.30163e-18
2.76068e-18
2.3078e-18
1.94726e-18
1.66929e-18
1.45769e-18
1.29609e-18
1.17106e-18
1.07271e-18
9.94072e-19
9.30303e-19
8.78039e-19
8.34678e-19
7.98093e-19
7.66582e-19
7.38952e-19
7.14487e-19
6.92675e-19
6.73083e-19
6.55412e-19
6.39586e-19
6.25758e-19
6.13993e-19
6.04133e-19
5.95917e-19
5.89104e-19
5.83549e-19
5.79189e-19
5.7606e-19
5.74267e-19
5.73801e-19
5.74957e-19
5.78386e-19
5.84211e-19
5.92542e-19
6.03465e-19
6.16958e-19
6.32975e-19
6.51579e-19
6.72993e-19
6.97635e-19
7.26063e-19
7.58978e-19
7.9722e-19
8.4172e-19
8.93453e-19
9.53559e-19
1.02371e-18
1.10648e-18
1.20539e-18
1.32527e-18
1.47234e-18
1.65458e-18
1.88255e-18
2.171e-18
2.54184e-18
3.02808e-18
3.68029e-18
4.57776e-18
5.84745e-18
7.6974e-18
1.0476e-17
1.4782e-17
2.16652e-17
3.29887e-17
5.20391e-17
8.43799e-17
1.3839e-16
2.23287e-16
3.39409e-16
4.55843e-16
5.05079e-16
4.59139e-16
3.85704e-16
3.79996e-16
7.16238e-16
5.43641e-15
1.36117e-13
5.54527e-12
2.16749e-10
6.94381e-09
1.57841e-07
4.81583e-05
0.0133407
0.043912
0.0499189
0.05
0.05
0.05
0.05
0.05
0.05
0.05
0.05
0.05
0.05
0.05
0.05
0.05
0.05
0.05
0.05
6.22983e-31
6.25786e-31
6.45156e-31
7.00747e-31
8.17489e-31
1.03058e-30
1.39662e-30
2.01679e-30
3.0857e-30
4.99791e-30
8.58575e-30
1.56634e-29
3.02967e-29
6.18005e-29
1.31851e-28
2.91352e-28
6.60169e-28
1.51992e-27
3.52768e-27
8.19893e-27
1.89776e-26
4.3558e-26
9.88501e-26
2.21539e-25
4.90681e-25
1.07662e-24
2.34807e-24
5.10746e-24
1.11065e-23
2.41614e-23
5.25172e-23
1.13724e-22
2.44355e-22
5.1865e-22
1.08278e-21
2.21503e-21
4.42629e-21
8.6192e-21
1.63244e-20
3.00267e-20
5.35775e-20
9.26578e-20
1.55213e-19
2.51727e-19
3.95137e-19
6.00158e-19
8.81738e-19
1.25259e-18
1.72043e-18
2.28687e-18
2.94995e-18
3.70999e-18
4.57099e-18
5.52031e-18
6.47022e-18
7.20588e-18
7.51908e-18
7.52535e-18
7.41545e-18
7.11435e-18
6.61992e-18
5.9766e-18
5.24461e-18
4.48777e-18
3.76636e-18
3.12744e-18
2.59649e-18
2.17635e-18
1.8538e-18
1.60886e-18
1.42193e-18
1.27721e-18
1.16317e-18
1.07178e-18
9.97422e-19
9.36199e-19
8.85169e-19
8.4204e-19
8.05084e-19
7.73149e-19
7.45469e-19
7.2136e-19
7.0012e-19
6.81194e-19
6.64312e-19
6.49526e-19
6.36947e-19
6.26518e-19
6.18001e-19
6.11082e-19
6.05493e-19
6.0108e-19
5.97859e-19
5.95974e-19
5.95467e-19
5.96701e-19
6.00429e-19
6.0679e-19
6.15851e-19
6.2766e-19
6.42137e-19
6.5918e-19
6.78776e-19
7.01079e-19
7.26431e-19
7.55335e-19
7.88483e-19
8.26756e-19
8.71116e-19
9.22556e-19
9.82232e-19
1.05181e-18
1.1339e-18
1.23229e-18
1.35204e-18
1.49966e-18
1.68359e-18
1.91498e-18
2.20961e-18
2.59089e-18
3.09403e-18
3.77284e-18
4.71132e-18
6.04319e-18
7.9874e-18
1.09118e-17
1.54478e-17
2.27028e-17
3.46439e-17
5.47474e-17
8.89028e-17
1.45962e-16
2.35612e-16
3.58076e-16
4.80524e-16
5.31863e-16
4.83648e-16
4.07886e-16
4.06652e-16
7.83945e-16
6.1184e-15
1.56359e-13
6.3697e-12
2.44626e-10
7.81023e-09
1.72422e-07
6.22586e-05
0.0152458
0.0445241
0.0499339
0.05
0.05
0.05
0.05
0.05
0.05
0.05
0.05
0.05
0.05
0.05
0.05
0.05
0.05
0.05
0.05
9.13307e-31
9.14932e-31
9.38892e-31
1.0159e-30
1.183e-30
1.49023e-30
2.01679e-30
2.90371e-30
4.42125e-30
7.11359e-30
1.2118e-29
2.18881e-29
4.18633e-29
8.43694e-29
1.77775e-28
3.87988e-28
8.68564e-28
1.97669e-27
4.53773e-27
1.0438e-26
2.39271e-26
5.44243e-26
1.22486e-25
2.72446e-25
5.99334e-25
1.3069e-24
2.8342e-24
6.13348e-24
1.32785e-23
2.87818e-23
6.23852e-23
1.34826e-22
2.89327e-22
6.13683e-22
1.2809e-21
2.62062e-21
5.23892e-21
1.02086e-20
1.93536e-20
3.56462e-20
6.37158e-20
1.10435e-19
1.85494e-19
3.01794e-19
4.75424e-19
7.24871e-19
1.0691e-18
1.52442e-18
2.10112e-18
2.80218e-18
3.62709e-18
4.579e-18
5.66321e-18
6.85429e-18
8.0216e-18
8.89123e-18
9.24056e-18
9.22766e-18
9.06195e-18
8.6567e-18
8.01781e-18
7.20165e-18
6.28273e-18
5.34082e-18
4.45072e-18
3.66901e-18
3.02427e-18
2.51716e-18
2.12953e-18
1.83598e-18
1.61228e-18
1.43914e-18
1.30266e-18
1.19318e-18
1.10397e-18
1.03038e-18
9.6897e-19
9.17118e-19
8.72875e-19
8.34881e-19
8.02133e-19
7.73756e-19
7.48943e-19
7.27081e-19
7.07847e-19
6.91215e-19
6.77245e-19
6.65865e-19
6.56793e-19
6.49632e-19
6.44004e-19
6.39657e-19
6.36543e-19
6.34779e-19
6.34416e-19
6.35884e-19
6.39966e-19
6.46792e-19
6.56431e-19
6.68885e-19
6.8401e-19
7.01656e-19
7.2176e-19
7.44441e-19
7.70011e-19
7.98957e-19
8.31999e-19
8.70052e-19
9.14119e-19
9.65268e-19
1.02479e-18
1.0945e-18
1.17708e-18
1.27648e-18
1.39799e-18
1.54848e-18
1.73688e-18
1.97508e-18
2.28002e-18
2.67676e-18
3.20273e-18
3.91516e-18
4.90291e-18
6.30734e-18
8.36028e-18
1.14503e-17
1.62443e-17
2.39122e-17
3.65358e-17
5.78024e-17
9.39694e-17
1.54443e-16
2.49474e-16
3.79141e-16
5.08371e-16
5.61956e-16
5.1095e-16
4.32549e-16
4.36851e-16
8.66718e-16
7.01914e-15
1.83231e-13
7.48584e-12
2.86436e-10
8.98766e-09
1.89483e-07
8.21001e-05
0.0175225
0.0452087
0.0499486
0.05
0.05
0.05
0.05
0.05
0.05
0.05
0.05
0.05
0.05
0.05
0.05
0.05
0.05
0.05
0.05
1.42666e-30
1.42578e-30
1.45665e-30
1.56854e-30
1.82023e-30
2.28718e-30
3.0857e-30
4.42125e-30
6.68592e-30
1.06641e-29
1.798e-29
3.20999e-29
6.06195e-29
1.20549e-28
2.50578e-28
5.39566e-28
1.19225e-27
2.6799e-27
6.08073e-27
1.38359e-26
3.13975e-26
7.07559e-26
1.57902e-25
3.48559e-25
7.61549e-25
1.65041e-24
3.55912e-24
7.66296e-24
1.65136e-23
3.56503e-23
7.70116e-23
1.65983e-22
3.55449e-22
7.52828e-22
1.5699e-21
3.21065e-21
6.41922e-21
1.25162e-20
2.37549e-20
4.38232e-20
7.84952e-20
1.36395e-19
2.29764e-19
3.75024e-19
5.92811e-19
9.07009e-19
1.34228e-18
1.92002e-18
2.6539e-18
3.54861e-18
4.60524e-18
5.83048e-18
7.23104e-18
8.76205e-18
1.02292e-17
1.12759e-17
1.1672e-17
1.16335e-17
1.13845e-17
1.08319e-17
9.98996e-18
8.93093e-18
7.74979e-18
6.5488e-18
5.42252e-18
4.44038e-18
3.6352e-18
3.00494e-18
2.52492e-18
2.16236e-18
1.88658e-18
1.67342e-18
1.50553e-18
1.37094e-18
1.26134e-18
1.17097e-18
1.09563e-18
1.03215e-18
9.78078e-19
9.31589e-19
8.91302e-19
8.5615e-19
8.25326e-19
7.98293e-19
7.74795e-19
7.54778e-19
7.38203e-19
7.24881e-19
7.14424e-19
7.06336e-19
7.00142e-19
6.95485e-19
6.9223e-19
6.90408e-19
6.90022e-19
6.91478e-19
6.95555e-19
7.02386e-19
7.12034e-19
7.24466e-19
7.39487e-19
7.56909e-19
7.76647e-19
7.98819e-19
8.23744e-19
8.51934e-19
8.84152e-19
9.21346e-19
9.64565e-19
1.01498e-18
1.07407e-18
1.14387e-18
1.2273e-18
1.32849e-18
1.45293e-18
1.6078e-18
1.80242e-18
2.04927e-18
2.3663e-18
2.77991e-18
3.32963e-18
4.07599e-18
5.11293e-18
6.59018e-18
8.75324e-18
1.20131e-17
1.70757e-17
2.5182e-17
3.85433e-17
6.10873e-17
9.94912e-17
1.63797e-16
2.64908e-16
4.02708e-16
5.39511e-16
5.95615e-16
5.41781e-16
4.60746e-16
4.71866e-16
9.71775e-16
8.2251e-15
2.18685e-13
8.95869e-12
3.39182e-10
1.09869e-08
2.19514e-07
0.000106521
0.0199173
0.0458853
0.0499615
0.05
0.05
0.05
0.05
0.05
0.05
0.05
0.05
0.05
0.05
0.05
0.05
0.05
0.05
0.05
0.05
2.36699e-30
2.36199e-30
2.40587e-30
2.57779e-30
2.97664e-30
3.72335e-30
4.99791e-30
7.11359e-30
1.06641e-29
1.68284e-29
2.80233e-29
4.93454e-29
9.18219e-29
1.79826e-28
3.68083e-28
7.80699e-28
1.70019e-27
3.76955e-27
8.44424e-27
1.8987e-26
4.26187e-26
9.50895e-26
2.10291e-25
4.60408e-25
9.98456e-25
2.14917e-24
4.60575e-24
9.85919e-24
2.11338e-23
4.54063e-23
9.76767e-23
2.09786e-22
4.48007e-22
9.46939e-22
1.97213e-21
4.03094e-21
8.06007e-21
1.57272e-20
2.9889e-20
5.52415e-20
9.9174e-20
1.7278e-19
2.91892e-19
4.77871e-19
7.5771e-19
1.1628e-18
1.72568e-18
2.47459e-18
3.42768e-18
4.59143e-18
5.96841e-18
7.5693e-18
9.40213e-18
1.13948e-17
1.32647e-17
1.45436e-17
1.49975e-17
1.49238e-17
1.45625e-17
1.38102e-17
1.2692e-17
1.13021e-17
9.76403e-18
8.21067e-18
6.76272e-18
5.50649e-18
4.48077e-18
3.6804e-18
3.07234e-18
2.61406e-18
2.26616e-18
1.99776e-18
1.78674e-18
1.61786e-18
1.48057e-18
1.36756e-18
1.27353e-18
1.19439e-18
1.12694e-18
1.06872e-18
1.01788e-18
9.73135e-19
9.33671e-19
8.99051e-19
8.69097e-19
8.43735e-19
8.22801e-19
8.05946e-19
7.92647e-19
7.82311e-19
7.74368e-19
7.68363e-19
7.64061e-19
7.61394e-19
7.6032e-19
7.61078e-19
7.64369e-19
7.70524e-19
7.79471e-19
7.91124e-19
8.05252e-19
8.21638e-19
8.40179e-19
8.61005e-19
8.84455e-19
9.11086e-19
9.41709e-19
9.77306e-19
1.01898e-18
1.06804e-18
1.12612e-18
1.19548e-18
1.27932e-18
1.38202e-18
1.50932e-18
1.66865e-18
1.86967e-18
2.12539e-18
2.4546e-18
2.88497e-18
3.45809e-18
4.23787e-18
5.32358e-18
6.87386e-18
9.14921e-18
1.25862e-17
1.79367e-17
2.65246e-17
4.07133e-17
6.47116e-17
1.05689e-16
1.74426e-16
2.82591e-16
4.29801e-16
5.75266e-16
6.34307e-16
5.77569e-16
4.94109e-16
5.14593e-16
1.10857e-15
9.85921e-15
2.6806e-13
1.0993e-11
4.15129e-10
1.3379e-08
2.83722e-07
0.000136325
0.0223718
0.0465411
0.0499727
0.05
0.05
0.05
0.05
0.05
0.05
0.05
0.05
0.05
0.05
0.05
0.05
0.05
0.05
0.05
0.05
4.17577e-30
4.16235e-30
4.23106e-30
4.51362e-30
5.18221e-30
6.44134e-30
8.58575e-30
1.2118e-29
1.798e-29
2.80233e-29
4.59985e-29
7.97084e-29
1.45794e-28
2.80496e-28
5.64004e-28
1.1756e-27
2.5179e-27
5.49579e-27
1.21332e-26
2.69174e-26
5.96797e-26
1.31666e-25
2.88211e-25
6.2513e-25
1.34409e-24
2.87027e-24
6.1059e-24
1.2981e-23
2.76494e-23
5.90644e-23
1.26418e-22
2.70369e-22
5.75452e-22
1.21336e-21
2.52313e-21
5.15371e-21
1.03064e-20
2.01271e-20
3.83057e-20
7.09331e-20
1.27634e-19
2.22921e-19
3.77594e-19
6.19833e-19
9.8538e-19
1.51591e-18
2.25465e-18
3.23901e-18
4.49277e-18
6.0242e-18
7.83677e-18
9.94542e-18
1.2359e-17
1.4968e-17
1.73706e-17
1.895e-17
1.94742e-17
1.93525e-17
1.88412e-17
1.78213e-17
1.63316e-17
1.44968e-17
1.248e-17
1.04545e-17
8.57488e-18
6.94959e-18
5.62558e-18
4.59417e-18
3.81173e-18
3.22292e-18
2.77674e-18
2.43322e-18
2.16373e-18
1.94854e-18
1.77397e-18
1.63053e-18
1.51134e-18
1.41106e-18
1.32549e-18
1.25137e-18
1.18633e-18
1.12879e-18
1.07787e-18
1.03313e-18
9.94408e-19
9.61545e-19
9.34209e-19
9.11871e-19
8.93871e-19
8.79522e-19
8.68175e-19
8.59286e-19
8.52519e-19
8.4771e-19
8.44864e-19
8.44018e-19
8.45548e-19
8.50126e-19
8.57685e-19
8.67894e-19
8.80462e-19
8.95149e-19
9.11828e-19
9.30631e-19
9.51917e-19
9.76289e-19
1.00461e-18
1.0379e-18
1.07733e-18
1.12433e-18
1.18072e-18
1.24895e-18
1.33247e-18
1.43594e-18
1.56536e-18
1.72848e-18
1.93529e-18
2.19934e-18
2.54029e-18
2.98714e-18
3.58363e-18
4.39725e-18
5.53295e-18
7.15909e-18
9.55303e-18
1.31809e-17
1.8848e-17
2.79761e-17
4.31071e-17
6.87795e-17
1.12744e-16
1.86658e-16
3.031e-16
4.6135e-16
6.16837e-16
6.792e-16
6.1936e-16
5.33993e-16
5.67586e-16
1.28723e-15
1.20589e-14
3.38221e-13
1.39377e-11
5.21958e-10
1.6683e-08
3.64587e-07
0.000179198
0.0248888
0.0471729
0.0499818
0.05
0.05
0.05
0.05
0.05
0.05
0.05
0.05
0.05
0.05
0.05
0.05
0.05
0.05
0.05
0.05
7.83819e-30
7.80642e-30
7.92409e-30
8.42223e-30
9.61158e-30
1.1855e-29
1.56634e-29
2.18881e-29
3.20999e-29
4.93454e-29
7.97084e-29
1.35651e-28
2.43316e-28
4.58694e-28
9.03617e-28
1.84608e-27
3.87885e-27
8.31496e-27
1.80517e-26
3.94332e-26
8.61976e-26
1.87721e-25
4.0607e-25
8.71245e-25
1.85457e-24
3.9237e-24
8.27465e-24
1.74498e-23
3.68914e-23
7.82774e-23
1.66555e-22
3.54457e-22
7.5149e-22
1.58005e-21
3.27969e-21
6.69334e-21
1.33854e-20
2.61588e-20
4.985e-20
9.24708e-20
1.66725e-19
2.91832e-19
4.95425e-19
8.15045e-19
1.29841e-18
2.00121e-18
2.98107e-18
4.28754e-18
5.95147e-18
7.98258e-18
1.03843e-17
1.31756e-17
1.63651e-17
1.97925e-17
2.28947e-17
2.48592e-17
2.5467e-17
2.52794e-17
2.45657e-17
2.31859e-17
2.1197e-17
1.87661e-17
1.61099e-17
1.34548e-17
1.09995e-17
8.88074e-18
7.15665e-18
5.81442e-18
4.79683e-18
4.0318e-18
3.45295e-18
3.00815e-18
2.65999e-18
2.38259e-18
2.15804e-18
1.97382e-18
1.82085e-18
1.69215e-18
1.58223e-18
1.48689e-18
1.40309e-18
1.32888e-18
1.26315e-18
1.20539e-18
1.15529e-18
1.11254e-18
1.07656e-18
1.04661e-18
1.02186e-18
1.00154e-18
9.84915e-19
9.71366e-19
9.6048e-19
9.52018e-19
9.45912e-19
9.42336e-19
9.41372e-19
9.43282e-19
9.48541e-19
9.56655e-19
9.67019e-19
9.79343e-19
9.93486e-19
1.00957e-18
1.02798e-18
1.04935e-18
1.07461e-18
1.10482e-18
1.14126e-18
1.18544e-18
1.23936e-18
1.30568e-18
1.38808e-18
1.49148e-18
1.62215e-18
1.78815e-18
1.99989e-18
2.27149e-18
2.62356e-18
3.08652e-18
3.70644e-18
4.55459e-18
5.7422e-18
7.44837e-18
9.96924e-18
1.38044e-17
1.98202e-17
2.95509e-17
4.57456e-17
7.33249e-17
1.20717e-16
2.0062e-16
3.267e-16
4.9783e-16
6.64906e-16
7.30902e-16
6.67647e-16
5.80901e-16
6.32165e-16
1.51562e-15
1.50948e-14
4.36006e-13
1.80862e-11
6.74807e-10
2.24284e-08
4.6359e-07
0.000240595
0.0272618
0.0477418
0.0499886
0.05
0.05
0.05
0.05
0.05
0.05
0.05
0.05
0.05
0.05
0.05
0.05
0.05
0.05
0.05
0.05
1.56183e-29
1.55458e-29
1.57651e-29
1.67034e-29
1.8945e-29
2.31646e-29
3.02967e-29
4.18633e-29
6.06195e-29
9.18219e-29
1.45794e-28
2.43316e-28
4.27188e-28
7.87361e-28
1.51591e-27
3.0277e-27
6.22464e-27
1.30721e-26
2.78405e-26
5.97487e-26
1.28498e-25
2.75707e-25
5.88319e-25
1.24655e-24
2.62293e-24
5.48991e-24
1.1462e-23
2.39467e-23
5.01937e-23
1.05681e-22
2.23349e-22
4.72634e-22
9.97517e-22
2.09029e-21
4.32898e-21
8.82378e-21
1.76395e-20
3.44853e-20
6.57792e-20
1.22183e-19
2.20646e-19
3.86872e-19
6.57895e-19
1.08411e-18
1.72961e-18
2.66913e-18
3.97974e-18
5.72698e-18
7.95047e-18
1.06607e-17
1.38592e-17
1.75686e-17
2.17955e-17
2.63096e-17
3.03301e-17
3.27853e-17
3.34893e-17
3.32102e-17
3.2221e-17
3.03535e-17
2.76912e-17
2.44601e-17
2.09494e-17
1.7455e-17
1.42322e-17
1.14547e-17
9.19544e-18
7.43657e-18
6.10319e-18
5.10123e-18
4.34396e-18
3.76306e-18
3.30929e-18
2.94852e-18
2.65704e-18
2.41822e-18
2.22004e-18
2.05334e-18
1.91096e-18
1.78748e-18
1.67904e-18
1.58311e-18
1.49824e-18
1.42368e-18
1.35893e-18
1.30337e-18
1.25614e-18
1.21618e-18
1.18248e-18
1.1541e-18
1.13021e-18
1.11012e-18
1.09334e-18
1.07959e-18
1.06873e-18
1.06089e-18
1.05628e-18
1.05484e-18
1.05658e-18
1.0615e-18
1.0688e-18
1.07786e-18
1.08852e-18
1.10091e-18
1.11544e-18
1.13283e-18
1.15404e-18
1.18021e-18
1.2127e-18
1.25317e-18
1.30375e-18
1.3673e-18
1.44772e-18
1.55017e-18
1.68121e-18
1.8492e-18
2.06494e-18
2.34322e-18
2.70558e-18
3.18397e-18
3.82697e-18
4.70991e-18
5.95088e-18
7.74076e-18
1.03962e-17
1.44539e-17
2.08478e-17
3.12384e-17
4.86106e-17
7.83216e-17
1.29581e-16
2.16297e-16
3.53407e-16
5.39326e-16
7.19767e-16
7.8998e-16
7.23108e-16
6.35751e-16
7.10817e-16
1.82134e-15
1.91498e-14
5.70503e-13
2.37558e-11
8.78862e-10
2.91541e-08
7.31261e-07
0.000343321
0.0295256
0.0482496
0.0499934
0.05
0.05
0.05
0.05
0.05
0.05
0.05
0.05
0.05
0.05
0.05
0.05
0.05
0.05
0.05
0.05
3.28416e-29
3.26772e-29
3.31164e-29
3.49887e-29
3.94376e-29
4.77762e-29
6.18005e-29
8.43694e-29
1.20549e-28
1.79826e-28
2.80496e-28
4.58694e-28
7.87361e-28
1.41667e-27
2.66068e-27
5.18422e-27
1.04052e-26
2.13575e-26
4.45217e-26
9.36673e-26
1.97791e-25
4.17313e-25
8.76875e-25
1.83182e-24
3.8043e-24
7.86633e-24
1.62385e-23
3.35705e-23
6.96873e-23
1.45449e-22
3.05049e-22
6.41351e-22
1.3465e-21
2.81017e-21
5.803e-21
1.18063e-20
2.35794e-20
4.60882e-20
8.79431e-20
1.63476e-19
2.95513e-19
5.18719e-19
8.83088e-19
1.45668e-18
2.32602e-18
3.59177e-18
5.35715e-18
7.70883e-18
1.06971e-17
1.43319e-17
1.86101e-17
2.35565e-17
2.91728e-17
3.51334e-17
4.03619e-17
4.34415e-17
4.42528e-17
4.3846e-17
4.2479e-17
3.99473e-17
3.63729e-17
3.20649e-17
2.74096e-17
2.27938e-17
1.85458e-17
1.48878e-17
1.19124e-17
9.59514e-18
7.83788e-18
6.51751e-18
5.5203e-18
4.75641e-18
4.16078e-18
3.68812e-18
3.3069e-18
2.99495e-18
2.73628e-18
2.5188e-18
2.3332e-18
2.17244e-18
2.03151e-18
1.90708e-18
1.79719e-18
1.70072e-18
1.61684e-18
1.54461e-18
1.48276e-18
1.42988e-18
1.38459e-18
1.34576e-18
1.3124e-18
1.28369e-18
1.25905e-18
1.23815e-18
1.22081e-18
1.20711e-18
1.19717e-18
1.19093e-18
1.1882e-18
1.18845e-18
1.19104e-18
1.19546e-18
1.2012e-18
1.20842e-18
1.21762e-18
1.22959e-18
1.24539e-18
1.26625e-18
1.29362e-18
1.32926e-18
1.37548e-18
1.43531e-18
1.51285e-18
1.6135e-18
1.74403e-18
1.91309e-18
2.13189e-18
2.41582e-18
2.78739e-18
3.2801e-18
3.94518e-18
4.86227e-18
6.15684e-18
8.03239e-18
1.08275e-17
1.51188e-17
2.19138e-17
3.30113e-17
5.16595e-17
8.371e-17
1.39264e-16
2.33619e-16
3.83144e-16
5.85772e-16
7.81467e-16
8.56811e-16
7.86604e-16
6.99644e-16
8.06856e-16
2.20643e-15
2.49603e-14
7.6969e-13
3.22846e-11
1.20391e-09
4.02468e-08
9.97106e-07
0.000546677
0.0317289
0.0486983
0.0499965
0.05
0.05
0.05
0.05
0.05
0.05
0.05
0.05
0.05
0.05
0.05
0.05
0.05
0.05
0.05
0.05
7.2244e-29
7.1867e-29
7.2794e-29
7.67034e-29
8.59175e-29
1.03099e-28
1.31851e-28
1.77775e-28
2.50578e-28
3.68083e-28
5.64004e-28
9.03617e-28
1.51591e-27
2.66068e-27
4.86928e-27
9.24256e-27
1.808e-26
3.62053e-26
7.37326e-26
1.51783e-25
3.14123e-25
6.50599e-25
1.34401e-24
2.76408e-24
5.65791e-24
1.15429e-23
2.35314e-23
4.80838e-23
9.87487e-23
2.0411e-22
4.24418e-22
8.85769e-22
1.84833e-21
3.83878e-21
7.89783e-21
1.6026e-20
3.19521e-20
6.2394e-20
1.19015e-19
2.21251e-19
4.00088e-19
7.02607e-19
1.19671e-18
1.97478e-18
3.15405e-18
4.87048e-18
7.26249e-18
1.04445e-17
1.44798e-17
1.9375e-17
2.5118e-17
3.17333e-17
3.92136e-17
4.71027e-17
5.39241e-17
5.78004e-17
5.87279e-17
5.8143e-17
5.62566e-17
5.28176e-17
4.80054e-17
4.22453e-17
3.60541e-17
2.99367e-17
2.43166e-17
1.94798e-17
1.55448e-17
1.24783e-17
1.01513e-17
8.40233e-18
7.08189e-18
6.07143e-18
5.28471e-18
4.66142e-18
4.15949e-18
3.74928e-18
3.40945e-18
3.12398e-18
2.88065e-18
2.67025e-18
2.48617e-18
2.32401e-18
2.18102e-18
2.05558e-18
1.94645e-18
1.85224e-18
1.77121e-18
1.70145e-18
1.64114e-18
1.58879e-18
1.54316e-18
1.50324e-18
1.46832e-18
1.43798e-18
1.41198e-18
1.39034e-18
1.37308e-18
1.35998e-18
1.35067e-18
1.34443e-18
1.34044e-18
1.33797e-18
1.33667e-18
1.33662e-18
1.33839e-18
1.343e-18
1.35154e-18
1.36541e-18
1.38617e-18
1.41567e-18
1.45634e-18
1.51138e-18
1.58508e-18
1.68301e-18
1.81216e-18
1.98139e-18
2.20223e-18
2.49066e-18
2.87007e-18
3.37553e-18
4.06101e-18
5.01059e-18
6.35745e-18
8.31821e-18
1.12543e-17
1.57844e-17
2.29949e-17
3.48339e-17
5.48389e-17
8.94163e-17
1.49678e-16
2.52488e-16
4.15841e-16
6.37177e-16
8.50103e-16
9.31707e-16
8.5872e-16
7.74266e-16
9.24105e-16
2.73246e-15
3.2916e-14
1.04268e-12
4.38981e-11
1.62687e-09
5.61368e-08
1.81851e-06
0.000941955
0.0339147
0.0490863
0.0499983
0.05
0.05
0.05
0.05
0.05
0.05
0.05
0.05
0.05
0.05
0.05
0.05
0.05
0.05
0.05
0.05
1.64581e-28
1.63699e-28
1.65717e-28
1.74146e-28
1.93852e-28
2.30426e-28
2.91352e-28
3.87988e-28
5.39566e-28
7.80699e-28
1.1756e-27
1.84608e-27
3.0277e-27
5.18422e-27
9.24256e-27
1.70802e-26
3.25337e-26
6.34831e-26
1.26129e-25
2.53684e-25
5.13797e-25
1.04315e-24
2.11574e-24
4.27814e-24
8.62091e-24
1.73331e-23
3.48575e-23
7.03286e-23
1.42745e-22
2.91907e-22
6.0121e-22
1.24436e-21
2.57844e-21
5.32434e-21
1.0904e-20
2.20485e-20
4.38466e-20
8.54685e-20
1.62842e-19
3.02518e-19
5.46839e-19
9.6011e-19
1.635e-18
2.69734e-18
4.30645e-18
6.64619e-18
9.90226e-18
1.42254e-17
1.96943e-17
2.63079e-17
3.40382e-17
4.29049e-17
5.28852e-17
6.33466e-17
7.22724e-17
7.7169e-17
7.82188e-17
7.73868e-17
7.47862e-17
7.01071e-17
6.3615e-17
5.58976e-17
4.76448e-17
3.95154e-17
3.20576e-17
2.56412e-17
2.04189e-17
1.63457e-17
1.32517e-17
1.09248e-17
9.16781e-18
7.82419e-18
6.77925e-18
5.95251e-18
5.28763e-18
4.74488e-18
4.29569e-18
3.91877e-18
3.59791e-18
3.32098e-18
3.0792e-18
2.86663e-18
2.6795e-18
2.51544e-18
2.37262e-18
2.24912e-18
2.14259e-18
2.05047e-18
1.97035e-18
1.90022e-18
1.83848e-18
1.78379e-18
1.73527e-18
1.69237e-18
1.65474e-18
1.6223e-18
1.59494e-18
1.57224e-18
1.55359e-18
1.53805e-18
1.52455e-18
1.51233e-18
1.50102e-18
1.49084e-18
1.48256e-18
1.47731e-18
1.47627e-18
1.48081e-18
1.49303e-18
1.51477e-18
1.5485e-18
1.59753e-18
1.6663e-18
1.76055e-18
1.88739e-18
2.05579e-18
2.27755e-18
2.56914e-18
2.95473e-18
3.47097e-18
4.17451e-18
5.15387e-18
6.54997e-18
8.59256e-18