/*--------------------------------*- C++ -*----------------------------------*\
  =========                 |
  \\      /  F ield         | OpenFOAM: The Open Source CFD Toolbox
   \\    /   O peration     | Website:  https://openfoam.org
    \\  /    A nd           | Version:  13
     \\/     M anipulation  |
\*---------------------------------------------------------------------------*/
FoamFile
{
    format      ascii;
    class       volScalarField;
    location    "0.002";
    object      p;
}
// * * * * * * * * * * * * * * * * * * * * * * * * * * * * * * * * * * * * * //

dimensions      [1 -1 -2 0 0 0 0];

internalField   nonuniform List<scalar> 
33334
(
228802
228824
228881
228934
229035
229176
229370
229619
229934
230333
230826
231412
232079
232809
233584
234389
235210
236030
236844
237643
238423
239182
239917
240645
241376
242121
242893
243712
244586
245529
246545
247642
248822
250086
251436
252869
254382
255973
257639
259376
261182
263055
264992
266994
269056
271180
273361
275599
277891
280232
282617
285041
287498
289985
292500
295040
297602
300182
302771
305359
307935
310484
312996
315459
317865
320204
322464
324632
326696
328645
330454
332074
333467
334630
335583
336420
337176
337817
338427
338927
339449
339895
340585
341079
341796
342413
343076
343906
344915
346059
347307
348667
350202
351961
353983
356225
358778
361678
364937
368566
372584
376978
381771
386942
392491
398419
404706
411329
418293
425598
433234
441184
449452
458035
466940
476156
485689
495533
505688
516162
526957
538087
549583
561458
573788
586668
600234
614734
630487
647962
667865
691081
718756
752136
792351
839863
893819
953000
1.01529e+06
1.07773e+06
1.14057e+06
1.20444e+06
1.27273e+06
1.35431e+06
1.47293e+06
1.68143e+06
2.06979e+06
2.31982e+06
1.07646e+06
306320
209561
209577
211275
213066
214678
216210
217480
218153
218455
218552
218581
218537
218403
218181
217908
217624
228824
228834
228892
228914
229007
229150
229347
229597
229910
230303
230790
231370
232032
232758
233527
234327
235145
235961
236773
237571
238350
239109
239848
240576
241303
242043
242811
243621
244485
245417
246420
247504
248670
249922
251260
252682
254185
255766
257424
259153
260952
262818
264749
266744
268799
270915
273090
275321
277605
279938
282315
284732
287183
289666
292177
294714
297274
299852
302440
305030
307608
310162
312679
315149
317561
319907
322175
324353
326429
328391
330215
331864
333284
334438
335395
336282
337068
337739
338282
338741
339267
339742
340062
340384
340898
341587
342513
343592
344727
345876
347096
348443
349973
351685
353630
355838
358350
361199
364405
367994
371958
376321
381065
386198
391725
397614
403853
410449
417396
424666
432260
440181
448417
456989
465876
475065
484576
494386
504489
514923
525675
536745
548182
559994
572252
585086
598597
613025
628726
646118
665924
689035
716563
749802
789897
837270
891049
950267
1.01216e+06
1.07443e+06
1.13775e+06
1.20284e+06
1.27278e+06
1.3565e+06
1.47713e+06
1.68748e+06
2.08237e+06
2.32098e+06
1.06964e+06
304347
210328
210472
212212
214008
215463
216522
217246
217848
218234
218400
218445
218416
218309
218127
217891
217619
228881
228892
229004
229027
229099
229219
229393
229626
229929
230318
230805
231386
232048
232774
233543
234342
235158
235973
236784
237582
238362
239122
239864
240595
241326
242069
242841
243655
244523
245458
246465
247551
248720
249974
251314
252737
254241
255823
257480
259210
261010
262876
264807
266800
268856
270971
273144
275374
277658
279991
282368
284786
287238
289720
292229
294764
297320
299895
302480
305067
307643
310195
312712
315180
317592
319935
322200
324374
326445
328397
330214
331875
333296
334418
335391
336272
337046
337731
338341
338914
339381
340008
340683
341406
342053
342686
343356
344115
344980
345964
347116
348489
350036
351769
353730
355955
358489
361361
364592
368203
372189
376568
381329
386480
392016
397915
404172
410785
417741
425026
432640
440579
448835
457416
466306
475506
485024
494846
504979
515441
526224
537339
548814
560675
572991
585862
599412
613879
629604
647042
666890
690043
717633
750929
791053
838404
892180
951277
1.01344e+06
1.07619e+06
1.14001e+06
1.20615e+06
1.27711e+06
1.36155e+06
1.48258e+06
1.69387e+06
2.09461e+06
2.3024e+06
1.05102e+06
299196
209604
209846
211565
213298
214710
215833
216694
217383
217880
218161
218255
218250
218174
218030
217831
217593
228934
228914
229027
229067
229155
229283
229464
229703
230009
230398
230881
231458
232115
232836
233601
234397
235211
236028
236844
237649
238439
239209
239961
240700
241440
242192
242971
243792
244667
245606
246616
247705
248876
250130
251468
252889
254391
255969
257624
259351
261148
263012
264941
266933
268986
271100
273271
275500
277781
280112
282489
284905
287355
289835
292343
294876
297431
300004
302589
305175
307752
310307
312825
315296
317709
320053
322318
324492
326560
328507
330322
331994
333424
334536
335539
336431
337206
337887
338481
339075
339633
340210
340743
341366
342049
342773
343534
344344
345227
346214
347370
348766
350323
352054
354005
356225
358756
361628
364862
368474
372462
376843
381606
386759
392294
398193
404452
411066
418022
425310
432927
440870
449132
457716
466608
475812
485330
495151
505287
515748
526530
537649
549125
560991
573316
586186
599738
614208
629932
647388
667248
690410
718023
751350
791505
838864
892644
951763
1.01422e+06
1.07731e+06
1.1411e+06
1.20685e+06
1.27769e+06
1.36255e+06
1.48422e+06
1.69605e+06
2.10186e+06
2.25961e+06
1.0191e+06
292644
209241
209571
211249
212839
214088
215116
215993
216739
217338
217754
217963
218016
217984
217888
217736
217538
229035
229007
229099
229155
229246
229373
229550
229785
230089
230476
230958
231532
232186
232903
233663
234457
235268
236086
236904
237713
238507
239284
240045
240795
241543
242305
243093
243923
244805
245750
246765
247858
249031
250286
251624
253044
254542
256118
257769
259493
261287
263148
265074
267063
269114
271225
273394
275619
277897
280225
282598
285009
287455
289932
292436
294965
297516
300085
302666
305251
307828
310384
312905
315378
317792
320136
322400
324571
326635
328578
330391
332063
333508
334640
335644
336537
337318
338013
338634
339242
339797
340344
340883
341503
342190
342937
343709
344516
345391
346391
347574
348969
350562
352310
354263
356483
359016
361890
365127
368739
372726
377105
381868
387022
392555
398454
404717
411334
418292
425585
433210
441158
449427
458015
466910
476119
485640
495466
505612
516077
526863
537988
549467
561338
573668
586538
600096
614574
630309
647792
667680
690874
718531
751917
792147
839580
893392
952539
1.01501e+06
1.078e+06
1.14165e+06
1.20726e+06
1.27791e+06
1.36258e+06
1.4847e+06
1.69762e+06
2.1102e+06
2.2122e+06
986505
286117
208721
209110
210697
212150
213301
214291
215174
215958
216632
217169
217532
217704
217738
217697
217598
217448
229176
229150
229219
229283
229373
229501
229675
229906
230207
230592
231073
231645
232295
233009
233767
234560
235373
236194
237017
237831
238633
239420
240192
240952
241711
242483
243280
244118
245006
245956
246975
248069
249243
250497
251832
253248
254741
256312
257957
259676
261465
263323
265245
267231
269278
271385
273550
275771
278046
280369
282736
285141
287582
290052
292550
295073
297618
300181
302757
305338
307914
310471
312995
315471
317888
320234
322498
324666
326728
328671
330484
332152
333612
334773
335769
336660
337447
338154
338798
339419
339996
340560
341129
341750
342438
343169
343922
344722
345611
346644
347853
349254
350859
352610
354560
356778
359311
362185
365421
369031
373017
377395
382159
387314
392847
398749
405017
411639
418602
425901
433534
441489
449765
458355
467253
476465
485988
495819
505972
516441
527234
538367
549852
561732
574067
586941
600507
614995
630744
648253
668175
691417
719131
752600
792938
840487
894361
953541
1.01594e+06
1.07873e+06
1.14232e+06
1.20788e+06
1.27843e+06
1.36293e+06
1.48585e+06
1.70167e+06
2.11991e+06
2.1607e+06
952014
278733
208072
208504
209976
211307
212394
213362
214251
215064
215795
216429
216934
217273
217428
217456
217414
217316
229370
229347
229393
229464
229550
229675
229845
230072
230369
230753
231232
231803
232452
233164
233921
234714
235525
236347
237172
237993
238803
239600
240383
241155
241927
242710
243517
244364
245260
246215
247240
248337
249512
250765
252097
253508
254996
256561
258201
259914
261699
263552
265471
267453
269496
271599
273760
275976
278244
280560
282919
285316
287748
290211
292701
295216
297754
300310
302880
305456
308030
310586
313113
315593
318014
320362
322627
324797
326859
328803
330617
332282
333753
334938
335936
336828
337622
338335
338992
339618
340214
340800
341400
342027
342702
343412
344159
344974
345895
346962
348187
349592
351199
352950
354904
357127
359664
362538
365773
369381
373367
377745
382512
387670
393206
399117
405394
412025
418997
426307
433951
441916
450201
458798
467702
476921
486449
496291
506454
516931
527735
538879
550372
562259
574595
587472
601046
615542
631304
648830
668787
692083
719854
753404
793849
841526
895503
954782
1.01718e+06
1.07982e+06
1.14331e+06
1.2089e+06
1.27961e+06
1.36443e+06
1.48898e+06
1.71014e+06
2.1357e+06
2.09835e+06
910724
270040
207242
207727
209095
210333
211382
212342
213241
214082
214863
215572
216188
216680
217008
217155
217180
217139
229619
229597
229626
229703
229785
229906
230072
230294
230589
230973
231453
232024
232673
233383
234139
234929
235737
236560
237387
238214
239034
239843
240639
241425
242210
243006
243824
244681
245585
246548
247578
248677
249854
251105
252434
253840
255323
256881
258514
260222
262001
263848
265761
267737
269774
271871
274026
276236
278497
280805
283155
285544
287967
290421
292903
295410
297939
300487
303050
305620
308188
310743
313270
315753
318178
320531
322798
324969
327033
328979
330793
332459
333937
335141
336145
337043
337846
338568
339231
339857
340461
341062
341680
342319
342992
343702
344467
345313
346268
347355
348583
349986
351591
353347
355308
357537
360076
362950
366184
369791
373779
378160
382934
388099
393643
399567
405857
412501
419488
426813
434471
442450
450748
459356
468271
477500
487035
496888
507059
517540
528351
539499
550998
562890
575226
588112
601698
616205
631983
649527
669520
692881
720725
754370
794935
842759
896880
956303
1.01879e+06
1.08136e+06
1.14475e+06
1.21039e+06
1.28144e+06
1.36727e+06
1.49399e+06
1.72098e+06
2.15661e+06
2.02173e+06
861903
260697
206271
206811
208090
209258
210282
211242
212158
213031
213857
214628
215331
215943
216428
216747
216889
216913
229934
229910
229929
230009
230089
230207
230369
230589
230884
231271
231754
232326
232972
233678
234429
235213
236018
236840
237671
238505
239335
240156
240966
241767
242566
243376
244208
245075
245989
246959
247995
249097
250275
251525
252851
254252
255728
257279
258906
260606
262378
264218
266124
268093
270124
272215
274363
276565
278818
281117
283458
285836
288249
290694
293167
295665
298185
300724
303277
305838
308399
310949
313475
315960
318390
320748
323020
325194
327261
329208
331024
332692
334174
335391
336401
337308
338124
338860
339532
340162
340771
341381
342008
342658
343342
344071
344865
345741
346717
347807
349028
350430
352037
353801
355773
358012
360556
363432
366668
370279
374275
378664
383449
388626
394185
400126
406434
413096
420102
427446
435122
443119
451433
460055
468984
478223
487767
497630
507804
518290
529110
540261
551768
563667
576006
588901
602500
617020
632813
650376
670403
693835
721767
755512
796198
844167
898450
958030
1.02068e+06
1.08331e+06
1.14672e+06
1.21244e+06
1.28386e+06
1.37102e+06
1.5009e+06
1.73316e+06
2.18234e+06
1.9373e+06
809479
251419
205193
205779
206985
208101
209110
210078
211015
211920
212789
213615
214389
215092
215702
216182
216493
216630
230333
230303
230318
230398
230476
230592
230753
230973
231271
231662
232147
232715
233354
234051
234794
235571
236372
237194
238029
238872
239713
240549
241375
242193
243009
243835
244680
245561
246485
247463
248504
249610
250789
252038
253360
254757
256227
257771
259390
261082
262846
264678
266575
268536
270559
272641
274780
276973
279216
281505
283835
286203
288606
291040
293503
295992
298504
301033
303575
306125
308676
311220
313743
316229
318663
321027
323305
325484
327554
329503
331321
332990
334476
335704
336718
337633
338461
339212
339898
340539
341156
341775
342410
343074
343777
344531
345351
346246
347227
348313
349531
350939
352552
354329
356316
358566
361116
364000
367244
370865
374875
379279
384082
389277
394857
400822
407152
413837
420868
428234
435932
443950
452282
460920
469867
479119
488673
498546
508724
519215
530041
541193
552703
564605
576945
589844
603451
617979
633789
651375
671437
694943
722977
756842
797676
845800
900261
959984
1.02278e+06
1.08547e+06
1.14905e+06
1.21491e+06
1.28673e+06
1.37498e+06
1.50814e+06
1.74742e+06
2.21076e+06
1.85219e+06
754271
242244
204026
204653
205803
206881
207884
208863
209823
210759
211669
212544
213377
214154
214860
215467
215941
216245
230826
230790
230805
230881
230958
231073
231232
231453
231754
232147
232627
233187
233815
234500
235232
236002
236800
237625
238467
239320
240176
241028
241872
242709
243543
244386
245247
246141
247076
248063
249110
250220
251401
252649
253969
255362
256827
258365
259976
261660
263415
265237
267125
269076
271089
273161
275289
277472
279704
281981
284300
286657
289049
291473
293927
296407
298909
301427
303958
306495
309035
311569
314088
316574
319013
321383
323668
325853
327926
329878
331698
333368
334857
336094
337113
338033
338871
339638
340340
340996
341627
342258
342905
343584
344306
345081
345916
346817
347797
348882
350106
351527
353150
354943
356947
359212
361777
364679
367941
371581
375612
380040
384869
390090
395700
401694
408051
414762
421820
429211
436933
444974
453326
461983
470950
480217
489782
499662
509842
520336
531164
542313
553820
565722
578060
590959
604566
619101
634929
652547
672648
696224
724368
758379
799396
847679
902314
962142
1.02504e+06
1.08777e+06
1.15147e+06
1.21746e+06
1.2897e+06
1.37917e+06
1.51533e+06
1.76416e+06
2.23923e+06
1.7647e+06
696187
233165
202784
203456
204565
205616
206617
207608
208589
209555
210501
211420
212305
213145
213927
214634
215238
215705
231412
231370
231386
231458
231532
231645
231803
232024
232326
232715
233187
233735
234349
235023
235745
236509
237307
238137
238989
239856
240729
241601
242465
243323
244178
245040
245919
246828
247774
248771
249825
250939
252122
253370
254689
256078
257539
259071
260675
262350
264095
265906
267783
269722
271723
273783
275900
278071
280291
282557
284864
287210
289591
292005
294450
296921
299413
301920
304439
306963
309490
312013
314524
317009
319451
321827
324120
326311
328389
330345
332167
333839
335330
336578
337602
338525
339369
340149
340866
341540
342188
342835
343495
344189
344925
345711
346551
347454
348437
349531
350770
352208
353846
355660
357688
359978
362570
365502
368794
372464
376527
380986
385849
391104
396748
402774
409160
415900
422984
430402
438147
446211
454584
463261
472248
481529
491105
500991
511171
521665
532491
543633
555135
567032
579366
592258
605859
620396
636243
653898
674043
697690
725947
760127
801363
849829
904642
964572
1.02758e+06
1.0903e+06
1.15408e+06
1.22026e+06
1.29305e+06
1.38414e+06
1.52432e+06
1.78244e+06
2.27466e+06
1.67799e+06
637478
224976
201493
202204
203285
204320
205321
206322
207322
208313
209291
210249
211180
212074
212920
213706
214412
215012
232079
232032
232048
232115
232186
232295
232452
232673
232972
233354
233815
234349
234950
235613
236327
237087
237889
238726
239592
240477
241371
242266
243155
244036
244914
245797
246694
247619
248579
249586
250648
251767
252954
254203
255522
256909
258366
259892
261489
263156
264890
266690
268555
270482
272470
274518
276622
278780
280989
283243
285539
287873
290244
292649
295083
297544
300026
302523
305029
307540
310053
312564
315066
317547
319989
322371
324673
326872
328958
330919
332746
334421
335916
337172
338203
339128
339976
340764
341493
342183
342846
343507
344181
344886
345631
346422
347267
348176
349171
350283
351545
353004
354665
356508
358572
360900
363534
366510
369845
373557
377659
382157
387059
392352
398034
404094
410511
417280
424390
431831
439598
447682
456075
464770
473773
483067
492652
502540
512718
523210
534028
545162
556655
568544
580870
593751
607341
621877
637739
655433
675633
699358
727734
762096
803563
852243
907225
967250
1.03033e+06
1.09299e+06
1.15678e+06
1.22306e+06
1.29639e+06
1.38915e+06
1.53473e+06
1.8037e+06
2.30991e+06
1.59584e+06
578523
217503
200170
200914
201977
203001
204004
205013
206027
207039
208044
209035
210005
210946
211849
212701
213489
214195
232809
232758
232774
232836
232903
233009
233164
233383
233678
234051
234500
235023
235613
236267
236976
237737
238546
239396
240280
241188
242108
243030
243946
244853
245756
246662
247579
248521
249496
250514
251585
252710
253902
255153
256473
257858
259312
260834
262423
264081
265804
267593
269445
271360
273335
275370
277462
279609
281805
284048
286333
288657
291018
293412
295836
298287
300758
303244
305739
308236
310736
313233
315724
318197
320639
323025
325336
327547
329644
331613
333448
335128
336628
337894
338933
339859
340708
341501
342238
342938
343614
344287
344971
345685
346436
347233
348086
349009
350024
351163
352455
353944
355640
357527
359641
362022
364712
367745
371134
374897
379047
383589
388532
393865
399586
405678
412126
418921
426055
433516
441300
449400
457806
466514
475526
484828
494419
504306
514480
524965
535772
546896
558378
570253
582569
595437
609016
623551
639425
657156
677421
701241
729748
764293
805989
854913
910075
970228
1.03341e+06
1.09607e+06
1.15998e+06
1.22645e+06
1.30044e+06
1.39506e+06
1.54563e+06
1.82811e+06
2.34518e+06
1.50924e+06
520203
210909
198829
199601
200652
201667
202670
203685
204710
205738
206764
207783
208787
209768
210719
211629
212487
213277
233584
233527
233543
233601
233663
233767
233921
234139
234429
234794
235232
235745
236327
236976
237685
238453
239274
240142
241050
241985
242935
243887
244832
245769
246698
247628
248566
249527
250517
251549
252630
253763
254961
256216
257538
258923
260374
261891
263474
265122
266836
268613
270453
272355
274319
276342
278422
280557
282743
284975
287250
289563
291913
294296
296710
299150
301611
304087
306571
309057
311544
314028
316507
318971
321409
323799
326119
328344
330457
332440
334286
335975
337482
338757
339805
340732
341581
342375
343116
343823
344507
345189
345883
346605
347365
348173
349043
349988
351033
352207
353540
355072
356818
358764
360943
363390
366149
369249
372701
376523
380726
385316
390303
395676
401433
407556
414032
420850
428002
435480
443275
451382
459795
468506
477518
486820
496409
506290
516456
526931
537721
548832
560300
572158
584458
597311
610880
625416
641301
659063
679397
703326
731978
766709
808635
857816
913174
973496
1.03672e+06
1.09939e+06
1.16337e+06
1.23005e+06
1.30489e+06
1.40211e+06
1.55905e+06
1.85461e+06
2.37793e+06
1.42002e+06
462100
205478
197477
198274
199315
200321
201325
202343
203373
204412
205455
206496
207528
208545
209538
210498
211415
212277
234389
234327
234342
234397
234457
234560
234714
234929
235213
235571
236002
236509
237087
237737
238453
239233
240073
240965
241901
242867
243850
244836
245814
246780
247738
248693
249654
250635
251642
252689
253782
254926
256132
257392
258717
260102
261552
263064
264641
266281
267985
269751
271581
273472
275425
277437
279508
281633
283808
286030
288295
290598
292936
295309
297712
300142
302593
305059
307534
310011
312487
314958
317424
319877
322308
324698
327027
329268
331399
333401
335263
336966
338484
339770
340828
341758
342607
343401
344143
344853
345544
346234
346938
347673
348448
349276
350171
351149
352234
353456
354844
356435
358250
360272
362529
365053
367891
371066
374590
378477
382739
387381
392411
397823
403612
409761
416259
423095
430259
437746
445543
453650
462058
470763
479763
489053
498631
508497
518650
529107
539874
550968
562416
574252
586534
599368
612922
627459
643356
661147
681553
705599
734414
769351
811514
860965
916568
977064
1.04035e+06
1.10306e+06
1.16733e+06
1.23443e+06
1.3101e+06
1.40979e+06
1.57323e+06
1.88719e+06
2.38978e+06
1.32308e+06
407250
200732
196121
196941
197970
198969
199969
200988
202021
203067
204122
205179
206235
207280
208309
209312
210281
211205
235210
235145
235158
235211
235268
235373
235525
235737
236018
236372
236800
237307
237889
238546
239274
240073
240935
241856
242825
243826
244845
245866
246878
247877
248863
249845
250830
251832
252859
253922
255031
256187
257402
258670
259999
261385
262834
264342
265914
267547
269243
271001
272822
274704
276648
278651
280712
282828
284995
287208
289462
291755
294084
296445
298837
301257
303700
306158
308626
311096
313563
316024
318477
320918
323340
325729
328065
330323
332478
334505
336391
338113
339646
340944
342014
342949
343797
344589
345330
346042
346739
347440
348160
348914
349714
350574
351509
352534
353676
354964
356426
358093
359994
362106
364454
367068
369993
373250
376852
380811
385135
389830
394903
400351
406168
412337
418850
425696
432864
440350
448140
456235
464627
473311
482287
491553
501106
510945
521074
531505
542241
553310
564729
576538
588797
601605
615142
629679
645589
663412
683890
708053
737037
772194
814620
864334
920197
980923
1.04424e+06
1.10706e+06
1.17145e+06
1.23894e+06
1.31564e+06
1.41834e+06
1.59038e+06
1.9224e+06
2.37123e+06
1.216e+06
356181
197172
194763
195606
196622
197610
198606
199622
200656
201705
202767
203837
204910
205979
207037
208078
209091
210069
236030
235961
235973
236028
236086
236194
236347
236560
236840
237194
237625
238137
238726
239396
240142
240965
241856
242811
243815
244855
245911
246970
248017
249049
250065
251074
252084
253109
254157
255240
256366
257538
258765
260041
261376
262765
264213
265720
267288
268917
270608
272360
274174
276049
277985
279981
282034
284142
286301
288505
290751
293035
295353
297705
300088
302499
304933
307386
309849
312314
314775
317228
319670
322099
324512
326896
329238
331511
333689
335744
337658
339405
340959
342274
343359
344301
345153
345946
346689
347407
348114
348832
349575
350360
351198
352105
353096
354188
355407
356782
358338
360100
362110
364328
366782
369498
372521
375869
379554
383585
387974
392722
397836
403316
409153
415333
421851
428693
435851
443323
451090
459158
467518
476167
485104
494334
503847
513646
523739
534132
544828
555861
567242
579019
591252
604032
617550
632079
648003
665863
686412
710684
739839
775261
817949
867933
924135
985102
1.04847e+06
1.11136e+06
1.17586e+06
1.24393e+06
1.32188e+06
1.42811e+06
1.60939e+06
1.96515e+06
2.28465e+06
1.0976e+06
308484
194465
193410
194274
195272
196247
197236
198248
199279
200329
201394
202472
203557
204645
205728
206799
207851
208874
236844
236773
236784
236844
236904
237017
237172
237387
237671
238029
238467
238989
239592
240280
241050
241901
242825
243815
244858
245936
247032
248128
249211
250276
251323
252361
253398
254448
255520
256626
257772
258962
260203
261490
262832
264225
265676
267183
268751
270378
272066
273815
275624
277494
279424
281413
283460
285561
287712
289909
292148
294424
296735
299079
301455
303859
306289
308738
311198
313662
316121
318569
321004
323424
325827
328205
330548
332832
335033
337118
339064
340844
342427
343764
344871
345827
346688
347487
348238
348965
349688
350429
351206
352034
352926
353900
354970
356154
357479
358969
360646
362526
364671
367015
369590
372425
375557
379000
382769
386870
391319
396112
401259
406758
412601
418776
425280
432100
439230
446668
454394
462420
470732
479332
488218
497396
506855
516599
526641
536982
547631
558620
569956
581698
593902
606655
620153
634672
650610
668511
689137
713521
742865
778546
821515
871765
928341
989568
1.05294e+06
1.11599e+06
1.18086e+06
1.2494e+06
1.32873e+06
1.43929e+06
1.63067e+06
2.01416e+06
2.13131e+06
961031
272422
192317
192061
192947
193921
194882
195862
196866
197893
198940
200006
201088
202182
203282
204384
205480
206564
207627
237643
237571
237582
237649
237713
237831
237993
238214
238505
238872
239320
239856
240477
241188
241985
242867
243826
244855
245936
247055
248190
249323
250442
251541
252620
253689
254755
255834
256933
258065
259234
260444
261701
263001
264352
265752
267207
268718
270288
271918
273606
275355
277163
279030
280956
282940
284982
287077
289223
291415
293648
295919
298225
300565
302936
305336
307762
310209
312668
315132
317591
320039
322471
324884
327279
329650
331990
334282
336502
338615
340597
342414
344032
345402
346539
347518
348396
349210
349978
350725
351476
352253
353077
353967
354936
356004
357184
358495
359961
361602
363428
365460
367765
370259
372970
375932
379176
382708
386552
390707
395197
400014
405173
410671
416499
422649
429118
435895
442973
450355
458020
465985
474232
482768
491589
500703
510096
519774
529754
540035
550633
561574
572866
584571
596744
609475
622957
637468
653419
671368
692080
716586
746123
782066
825310
875858
932820
994368
1.05775e+06
1.12112e+06
1.18629e+06
1.25537e+06
1.33614e+06
1.45132e+06
1.6557e+06
2.06837e+06
1.93764e+06
829783
245030
190526
190729
191623
192572
193517
194486
195481
196500
197542
198605
199688
200786
201896
203012
204127
205237
206333
238423
238350
238362
238439
238507
238633
238803
239034
239335
239713
240176
240729
241371
242108
242935
243850
244845
245911
247032
248190
249363
250534
251688
252822
253935
255036
256135
257245
258375
259535
260730
261963
263239
264553
265916
267325
268789
270306
271882
273517
275210
276961
278770
280637
282561
284542
286580
288672
290814
293002
295232
297500
299803
302141
304510
306909
309334
311781
314243
316710
319175
321628
324064
326477
328869
331235
333572
335867
338099
340237
342253
344111
345772
347184
348363
349377
350286
351128
351925
352705
353497
354325
355216
356193
357270
358471
359802
361287
362939
364769
366782
369001
371484
374146
376990
380071
383409
387009
390901
395080
399581
404393
409534
415001
420784
426878
433281
439987
446987
454291
461875
469764
477935
486397
495144
504184
513506
523116
533031
543247
553794
564688
575940
587610
599755
612468
625940
640452
656421
674427
695224
719880
749627
785795
829392
880220
937629
999448
1.06291e+06
1.12668e+06
1.19226e+06
1.26226e+06
1.34504e+06
1.46585e+06
1.6844e+06
2.12653e+06
1.754e+06
709743
224657
188977
189410
190304
191227
192155
193110
194093
195102
196136
197195
198275
199375
200489
201614
202744
203874
204996
239182
239109
239122
239209
239284
239420
239600
239843
240156
240549
241028
241601
242266
243030
243887
244836
245866
246970
248128
249323
250534
251742
252932
254102
255250
256388
257522
258668
259831
261023
262247
263504
264800
266131
267508
268928
270403
271930
273515
275158
276857
278613
280425
282294
284219
286200
288238
290329
292470
294657
296886
299154
301458
303797
306167
308569
310997
313447
315914
318389
320862
323326
325770
328190
330582
332947
335280
337573
339812
341968
344014
345913
347625
349091
350324
351390
352344
353229
354070
354901
355757
356666
357660
358768
360006
361395
362938
364652
366537
368594
370822
373248
375905
378721
381678
384844
388237
391866
395764
399921
404388
409145
414221
419610
425306
431309
437616
444228
451131
458343
465835
473638
481725
490108
498779
507744
516997
526544
536403
546563
557068
567922
579145
590788
602906
615604
629079
643600
659595
677653
698549
723375
753311
789751
833717
884878
942713
1.00479e+06
1.06841e+06
1.13263e+06
1.19863e+06
1.26929e+06
1.35424e+06
1.4819e+06
1.71595e+06
2.18782e+06
1.59588e+06
600619
209491
187562
188114
188995
189891
190799
191737
192706
193703
194727
195778
196854
197951
199067
200197
201337
202481
203625
239917
239848
239864
239961
240045
240192
240383
240639
240966
241375
241872
242465
243155
243946
244832
245814
246878
248017
249211
250442
251688
252932
254160
255366
256553
257729
258902
260086
261286
262512
263765
265047
266364
267713
269107
270541
272029
273568
275165
276818
278526
280289
282107
283981
285910
287895
289936
292030
294173
296362
298593
300862
303169
305511
307886
310292
312726
315183
317657
320142
322629
325107
327566
330000
332402
334771
337105
339399
341642
343811
345882
347821
349585
351114
352414
353545
354561
355508
356418
357331
358290
359330
360489
361797
363268
364916
366733
368720
370868
373167
375609
378220
381016
383945
386968
390170
393557
397153
400992
405063
409431
414070
419027
424291
429863
435744
441932
448434
455230
462348
469747
477470
485478
493791
502395
511295
520495
529993
539811
549930
560406
571228
582432
594053
606153
618850
632330
646867
662895
681006
702009
726994
757151
793906
838227
889773
947945
1.01041e+06
1.07424e+06
1.13876e+06
1.20526e+06
1.27643e+06
1.36382e+06
1.49914e+06
1.75364e+06
2.24719e+06
1.45657e+06
501123
198421
186238
186844
187701
188567
189453
190372
191324
192306
193318
194359
195427
196519
197633
198765
199910
201065
202224
240645
240576
240595
240700
240795
240952
241155
241425
241767
242193
242709
243323
244036
244853
245769
246780
247877
249049
250276
251541
252822
254102
255366
256612
257839
259057
260271
261496
262734
263994
265276
266584
267923
269292
270703
272154
273657
275211
276820
278483
280200
281972
283797
285679
287616
289609
291657
293756
295904
298097
300331
302605
304916
307264
309646
312060
314503
316970
319455
321954
324457
326955
329435
331888
334308
336690
339032
341329
343576
345755
347846
349818
351633
353227
354602
355812
356913
357952
358972
360022
361156
362410
363826
365424
367209
369180
371313
373592
376000
378517
381135
383879
386757
389728
392733
395880
399167
402638
406333
410241
414443
418911
423707
428813
434240
439989
446057
452454
459156
466196
473517
481176
489119
497379
505934
514789
523953
533419
543218
553312
563778
574578
585775
597386
609478
622176
635663
650227
666287
684455
705576
730702
761121
798208
842881
894811
953295
1.01629e+06
1.08033e+06
1.14516e+06
1.21197e+06
1.28429e+06
1.37458e+06
1.51902e+06
1.79861e+06
2.28993e+06
1.31769e+06
412297
190931
184977
185603
186426
187261
188122
189020
189952
190917
191915
192943
194001
195085
196194
197324
198471
199631
200800
241376
241303
241326
241440
241543
241711
241927
242210
242566
243009
243543
244178
244914
245756
246698
247738
248863
250065
251323
252620
253935
255250
256553
257839
259108
260369
261626
262892
264167
265460
266772
268105
269466
270855
272285
273755
275275
276843