/*--------------------------------*- C++ -*----------------------------------*\
  =========                 |
  \\      /  F ield         | OpenFOAM: The Open Source CFD Toolbox
   \\    /   O peration     | Website:  https://openfoam.org
    \\  /    A nd           | Version:  13
     \\/     M anipulation  |
\*---------------------------------------------------------------------------*/
FoamFile
{
    format      ascii;
    class       surfaceScalarField;
    location    "0.002";
    object      phi;
}
// * * * * * * * * * * * * * * * * * * * * * * * * * * * * * * * * * * * * * //

dimensions      [1 0 -1 0 0 0 0];

internalField   nonuniform List<scalar> 
66301
(
0.00371629
0.00371629
0.00748278
0.00363444
0.0110899
0.00373504
0.0143349
0.00401667
0.0173414
0.0041309
0.0201716
0.00415023
0.0228414
0.00412556
0.0253191
0.00410431
0.0275778
0.00407595
0.0296403
0.00399116
0.0315412
0.00385493
0.0332903
0.00371944
0.0348683
0.00363193
0.0362464
0.00360387
0.0373945
0.00363383
0.0383169
0.00368744
0.0390368
0.00374526
0.0395584
0.00382458
0.0399129
0.00389625
0.0401269
0.00396487
0.040232
0.00403052
0.0402621
0.00409329
0.0402572
0.00415689
0.0402365
0.00423895
0.0402347
0.00432959
0.0402623
0.00442005
0.0403636
0.00450414
0.0405734
0.00457559
0.04091
0.00464326
0.0414074
0.00469083
0.0420764
0.00474094
0.0429436
0.00477701
0.0440176
0.00481482
0.0453073
0.00485061
0.0468247
0.00487736
0.0485654
0.00490702
0.0505139
0.00494783
0.0526511
0.0050016
0.0549533
0.00507283
0.0573892
0.00516893
0.0599313
0.00528692
0.0625638
0.00541515
0.065284
0.00554047
0.068095
0.00565654
0.0709988
0.00576388
0.0739947
0.00586449
0.0770806
0.00595945
0.0802565
0.00604721
0.0835246
0.0061259
0.086891
0.00619226
0.0903619
0.00624495
0.0939354
0.00628911
0.0975982
0.00633638
0.101331
0.00638975
0.105114
0.00644679
0.108935
0.00650099
0.112786
0.00654649
0.116664
0.0065836
0.120562
0.00662034
0.124461
0.00666861
0.128335
0.0067351
0.132156
0.00681807
0.135894
0.00690749
0.139521
0.00699413
0.143008
0.00707116
0.146323
0.00713283
0.149436
0.00717557
0.15232
0.00719619
0.154951
0.00719627
0.157296
0.00717702
0.159286
0.00713905
0.160802
0.00711614
0.161768
0.00713117
0.162198
0.00716881
0.162212
0.00716763
0.162031
0.00719576
0.161476
0.00732752
0.160541
0.00744206
0.159366
0.00744238
0.15831
0.0069052
0.158055
0.00635402
0.158341
0.00565278
0.157788
0.0064607
0.155668
0.00824827
0.152405
0.0092006
0.149088
0.0092046
0.146389
0.00878319
0.144333
0.00848961
0.142668
0.00845219
0.141266
0.00842836
0.1401
0.00834844
0.1392
0.00831659
0.138635
0.00836798
0.138552
0.00853668
0.138643
0.00870026
0.139367
0.00872499
0.140899
0.00866809
0.143362
0.00855401
0.146792
0.00845491
0.151152
0.00843472
0.156455
0.00842713
0.162615
0.00850458
0.169633
0.00858084
0.177442
0.00870829
0.186012
0.00886346
0.195416
0.0089446
0.205648
0.0090213
0.216623
0.00917708
0.228356
0.00931355
0.240969
0.00932582
0.254502
0.00929074
0.268836
0.00936989
0.283887
0.00953712
0.299666
0.00969789
0.316273
0.00977183
0.333768
0.00980317
0.352191
0.00981823
0.371514
0.00988423
0.391651
0.0100571
0.412555
0.0103015
0.434196
0.0105983
0.456601
0.0108985
0.479873
0.0111139
0.503945
0.0113938
0.528804
0.011686
0.554518
0.0118701
0.58106
0.011996
0.608434
0.0119925
0.636444
0.0119531
0.664595
0.0120629
0.692296
0.0122576
0.718678
0.0126334
0.742775
0.0131812
0.763597
0.01387
0.780621
0.0147215
0.794736
0.0156868
0.808832
0.0165562
0.828993
0.017606
0.864345
0.0173696
0.919266
0.0164423
1.00308
0.0163135
1.12623
0.0182582
1.30583
0.0188324
1.57105
0.0178701
2.00595
0.0214613
2.82905
0.0235216
4.55618
0.0329037
5.91503
0.0546672
4.22121
0.0195204
0.882826
0.00297935
0.773996
0.00640702
0.774703
0.00562286
0.792208
0.00517962
0.80445
0.00497054
0.81515
0.00515756
0.82474
0.0054123
0.831309
0.00309975
0.834022
0.0024896
0.834738
0.00174017
0.834743
0.00125921
0.834433
0.000972723
0.833572
0.000649032
0.832011
0.00035853
0.829941
0.000131901
0.827688
0.000110756
3.7318e-06
0.00363444
0.00748278
0.00733686
0.00733686
0.0115128
0.00689826
0.015503
0.00723773
0.0192501
0.00747028
0.022812
0.00753953
0.0261926
0.00752194
0.0293611
0.00750378
0.0322519
0.00751053
0.0348091
0.00748509
0.0370113
0.00741321
0.0388691
0.00733925
0.0404149
0.00730642
0.041692
0.00731817
0.0427257
0.00739049
0.0435647
0.007466
0.0442586
0.00752533
0.0448065
0.00763063
0.0452361
0.00772255
0.0455677
0.00781295
0.0458254
0.0079018
0.0460378
0.00798994
0.0462322
0.00809295
0.0464437
0.00821944
0.0467054
0.00835749
0.0470387
0.00850216
0.047464
0.00864719
0.0480084
0.00877411
0.0486835
0.00890261
0.0495233
0.00899266
0.0505307
0.00909577
0.0517257
0.00917839
0.053112
0.00926991
0.0546896
0.00936732
0.0564679
0.00944971
0.0584418
0.00953904
0.0605915
0.00965466
0.0628992
0.00979503
0.065353
0.00995804
0.0679388
0.0101533
0.0706451
0.0103763
0.0734674
0.0106084
0.0764097
0.0108281
0.079479
0.0110255
0.0826807
0.0112022
0.086016
0.0113634
0.0894806
0.0115154
0.093066
0.0116611
0.0967623
0.0118004
0.100562
0.0119279
0.104461
0.0120391
0.108455
0.012139
0.112538
0.0122391
0.116689
0.0123483
0.120892
0.0124641
0.125129
0.012576
0.129389
0.0126768
0.13366
0.0127694
0.137925
0.0128676
0.142167
0.0129899
0.14636
0.0131463
0.15048
0.0133333
0.154497
0.0135341
0.158385
0.013729
0.162113
0.0139036
0.165649
0.0140499
0.168956
0.0141653
0.171996
0.0142518
0.174726
0.014317
0.177094
0.0143578
0.179024
0.0143745
0.180415
0.0144161
0.181166
0.0145054
0.181254
0.014561
0.181132
0.0146031
0.180705
0.0146605
0.180087
0.0147007
0.179209
0.0148044
0.177575
0.0152959
0.174166
0.0163524
0.169135
0.0174083
0.164203
0.0164351
0.161592
0.0147316
0.161236
0.0144911
0.161334
0.0150329
0.161468
0.0153076
0.161354
0.0154544
0.160976
0.0156273
0.160448
0.0158314
0.15989
0.0159266
0.159468
0.0158985
0.1593
0.0159397
0.15932
0.0161514
0.159644
0.0164416
0.160491
0.0166297
0.161917
0.0167052
0.164022
0.0166833
0.16692
0.0165749
0.170656
0.0165039
0.175295
0.0164935
0.180807
0.0165425
0.187237
0.0166398
0.194513
0.0167962
0.202622
0.0170164
0.211641
0.0171818
0.221514
0.0173179
0.232134
0.0175509
0.24354
0.0178245
0.255813
0.0179863
0.268897
0.0180693
0.282733
0.0181631
0.297326
0.0183686
0.312672
0.01867
0.328912
0.0188345
0.346076
0.0188837
0.364076
0.0189972
0.382942
0.0190889
0.40261
0.0193047
0.422952
0.019779
0.44408
0.0202444
0.466054
0.0207161
0.488854
0.0212454
0.512588
0.0216048
0.537218
0.0220657
0.562715
0.022582
0.589239
0.0228037
0.616645
0.0230212
0.644705
0.0232156
0.67323
0.0233291
0.701624
0.0238301
0.729357
0.0244624
0.755791
0.02523
0.780018
0.0262704
0.801294
0.0273978
0.819447
0.0285307
0.83521
0.0300279
0.850982
0.031931
0.873279
0.0335049
0.906545
0.0369369
0.953453
0.0414144
1.0289
0.0427426
1.1506
0.0415678
1.33434
0.0395587
1.60501
0.0402772
2.04804
0.046044
2.88457
0.0517258
4.6262
0.0671385
5.97409
0.0983072
4.1839
0.0679608
0.894331
0.0219573
0.789045
0.0138525
0.78915
0.0134443
0.803901
0.0128745
0.813612
0.0119481
0.820864
0.0106749
0.826055
0.00929311
0.829744
0.00711679
0.832638
0.00529857
0.833977
0.00376067
0.83411
0.00267369
0.833841
0.00200153
0.833065
0.00141589
0.831696
0.000874637
0.829921
0.000447109
0.827912
0.00015801
2.21955e-05
0.00373504
0.0110899
0.00689826
0.0115128
0.0105367
0.0105367
0.0142842
0.0106461
0.0179365
0.010855
0.0214647
0.0109181
0.0248427
0.0108815
0.0280252
0.0108529
0.0309274
0.010897
0.0334691
0.0109546
0.0356144
0.0109836
0.0373804
0.0110023
0.0388203
0.011037
0.0399963
0.0110848
0.0409497
0.0111812
0.0417358
0.0112543
0.0423898
0.0113034
0.042914
0.0114171
0.0433323
0.0115145
0.0436617
0.0116177
0.0439278
0.0117243
0.0441592
0.0118361
0.044385
0.0119718
0.0446396
0.0121344
0.0449514
0.0123142
0.0453413
0.0125091
0.0458293
0.0127096
0.0464383
0.0128896
0.0471782
0.0130779
0.0480778
0.0132142
0.0491355
0.0133784
0.0503674
0.0135196
0.0517732
0.013681
0.0533533
0.013856
0.0551134
0.0140143
0.0570443
0.014188
0.0591281
0.0144019
0.0613518
0.014648
0.0637092
0.0149164
0.0661945
0.0152169
0.0688053
0.0155415
0.0715447
0.0158667
0.0744201
0.0161665
0.0774382
0.0164309
0.0806026
0.0166639
0.0839116
0.0168752
0.0873576
0.017077
0.0909291
0.0172759
0.0946147
0.0174728
0.098406
0.0176595
0.102298
0.0178289
0.106285
0.0179851
0.110355
0.018141
0.114489
0.0183087
0.118672
0.0184839
0.122889
0.0186543
0.127123
0.0188144
0.131358
0.0189715
0.135573
0.0191442
0.139747
0.0193548
0.14386
0.0196128
0.147891
0.0199102
0.151819
0.0202221
0.155622
0.0205195
0.159274
0.0207839
0.162739
0.0210091
0.165978
0.0211967
0.168947
0.0213542
0.171592
0.0214909
0.173849
0.0216038
0.175673
0.0216986
0.176993
0.0217948
0.177609
0.0219186
0.17762
0.0220347
0.17742
0.0221029
0.176942
0.0221473
0.176145
0.0222028
0.174907
0.022494
0.173111
0.0233406
0.170926
0.0246551
0.169205
0.025146
0.167595
0.0240793
0.16602
0.0222502
0.164719
0.0218099
0.163227
0.0225232
0.161389
0.0232864
0.159598
0.0235696
0.158179
0.0235241
0.157142
0.0234508
0.156421
0.0233966
0.156038
0.0233764
0.156019
0.0235058
0.156188
0.0237947
0.156708
0.0241708
0.15773
0.0244017
0.159317
0.0245446
0.161558
0.0245918
0.164536
0.0245494
0.168301
0.0245587
0.172916
0.0246045
0.178378
0.0247319
0.18472
0.0248808
0.191906
0.0251183
0.199944
0.0254097
0.208867
0.025607
0.218608
0.0258334
0.229115
0.0262046
0.240431
0.0265682
0.252582
0.0267836
0.265504
0.0269782
0.279173
0.02721
0.293618
0.0275242
0.308874
0.0279018
0.325021
0.0280697
0.342028
0.0281572
0.359828
0.0283984
0.378432
0.0286295
0.397794
0.0290464
0.417896
0.029765
0.438846
0.0303904
0.460686
0.0310029
0.483429
0.0316909
0.507135
0.0321663
0.531781
0.0327702
0.55736
0.0334387
0.583878
0.0337709
0.611151
0.0342006
0.638941
0.034706
0.666986
0.0351623
0.694844
0.0361117
0.722034
0.0371862
0.747889
0.0383863
0.771538
0.0399158
0.792156
0.0415482
0.809469
0.0431472
0.824281
0.0452902
0.839214
0.0479797
0.860355
0.0501904
0.895254
0.0546346
0.949191
0.0592797
1.03412
0.0600443
1.16207
0.0591285
1.34684
0.0593817
1.61656
0.0628591
2.05841
0.069816
2.89627
0.081252
4.65825
0.0992666
6.00878
0.136267
4.09042
0.102304
0.879076
0.0326482
0.782967
0.0214099
0.783455
0.0206393
0.798836
0.0196132
0.808664
0.0181544
0.816
0.0161678
0.821819
0.0136869
0.826413
0.0109671
0.829923
0.00842118
0.832066
0.00617193
0.83272
0.00436223
0.832638
0.00309413
0.832078
0.00221458
0.83099
0.00146761
0.829479
0.00085584
0.827665
0.000415474
0.000144083
0.00401667
0.0143349
0.00723773
0.015503
0.0106461
0.0142842
0.0141833
0.0141833
0.0176443
0.0143564
0.0209941
0.0143967
0.0242047
0.0143331
0.0272433
0.0142719
0.0300399
0.014311
0.0325197
0.0144002
0.0346441
0.0144835
0.036421
0.0145627
0.0378891
0.0146504
0.0390941
0.0147372
0.0400686
0.0148685
0.0408678
0.0149487
0.0415165
0.0150038
0.0420283
0.0151298
0.0424299
0.0152362
0.0427415
0.0153573
0.0429986
0.0154824
0.0432356
0.0156164
0.043483
0.0157791
0.04377
0.0159718
0.0441218
0.0161878
0.0445598
0.0164259
0.0451025
0.0166749
0.0457684
0.0169047
0.0465641
0.0171527
0.0475128
0.0173405
0.0486098
0.0175745
0.0498688
0.0177854
0.0512894
0.0180284
0.0528754
0.01829
0.054632
0.018534
0.0565501
0.0188023
0.058615
0.0191217
0.060816
0.0194786
0.0631483
0.0198566
0.0656087
0.0202637
0.068199
0.0206875
0.0709246
0.021101
0.0737924
0.0214763
0.0768075
0.0218046
0.0799723
0.0220917
0.0832852
0.0223503
0.0867405
0.0225971
0.0903289
0.0228423
0.0940402
0.0230885
0.0978649
0.0233277
0.101793
0.0235522
0.105813
0.0237656
0.109908
0.0239839
0.114062
0.024217
0.11826
0.0244576
0.122487
0.0246922
0.126728
0.0249181
0.130962
0.0251468
0.135169
0.0254007
0.139331
0.0257032
0.14343
0.0260607
0.147454
0.0264608
0.151386
0.0268723
0.155206
0.0272621
0.158883
0.0276111
0.162377
0.0279159
0.165642
0.0281815
0.168628
0.0284181
0.171274
0.0286358
0.173514
0.0288373
0.175317
0.0290377
0.176584
0.0292281
0.177034
0.029409
0.176971
0.0296044
0.176585
0.0297749
0.175857
0.0298433
0.17479
0.0299405
0.17344
0.0302555
0.171971
0.0310364
0.170652
0.0320943
0.169441
0.032418
0.167725
0.0317875
0.165261
0.0306752
0.162946
0.0301984
0.161173
0.0304879
0.159727
0.0310594
0.158371
0.0313151
0.157069
0.0312377
0.155944
0.03105
0.15512
0.0308973
0.154713
0.0309003
0.154708
0.0310919
0.154963
0.0313884
0.155629
0.0317525
0.156819
0.0319925
0.158589
0.0321898
0.161014
0.0323137
0.164148
0.0323713
0.168028
0.0324984
0.172717
0.0326364
0.178212
0.0328768
0.18455
0.0331103
0.191711
0.0334486
0.199718
0.0338167
0.208586
0.0340682
0.218253
0.0344022
0.228701
0.0348933
0.239971
0.0353285
0.252057
0.0356131
0.264892
0.0359407
0.278464
0.0363202
0.292804
0.036754
0.307946
0.0372191
0.323937
0.0374328
0.340728
0.0376225
0.358287
0.0380185
0.37664
0.0383967
0.395769
0.0389959
0.415715
0.0398786
0.436573
0.040596
0.458357
0.0413131
0.481086
0.0421176
0.504779
0.0427052
0.529413
0.0434527
0.554988
0.0442638
0.581441
0.0447669
0.608587
0.0454756
0.636204
0.0463347
0.664005
0.0472011
0.691638
0.0485856
0.718639
0.0500637
0.744312
0.0516857
0.767812
0.0536584
0.788266
0.0558014
0.805369
0.0579561
0.82001
0.0607614
0.834826
0.0641501
0.855698
0.0671014
0.890893
0.0720834
0.945664
0.0763829
1.03061
0.0772257
1.15788
0.0769854
1.34293
0.0780279
1.61457
0.0808662
2.05995
0.0866518
2.90285
0.100844
4.68106
0.125784
6.02527
0.162683
3.94697
0.12568
0.864565
0.0411011
0.778886
0.0285282
0.780901
0.0273815
0.79535
0.0257421
0.804353
0.0235405
0.811153
0.0208605
0.816928
0.0178503
0.82188
0.0147665
0.825959
0.0117447
0.828938
0.00892521
0.830533
0.00645356
0.830877
0.00449445
0.830594
0.00314736
0.82985
0.00219137
0.828675
0.00140946
0.827166
0.00080323
0.000379935
0.0041309
0.0173414
0.00747028
0.0192501
0.010855
0.0179365
0.0143564
0.0176443
0.0177822
0.0177822
0.0210751
0.0178214
0.0241999
0.0177639
0.0271291
0.0176977
0.0298125
0.0177353
0.0322
0.0178335
0.0342703
0.0179339
0.0360365
0.0180339
0.0375317
0.0181399
0.0387876
0.0182415
0.0398261
0.0183921
0.040693
0.0184714
0.0413977
0.0185418
0.0419621
0.0186872
0.0424138
0.0188147
0.0427746
0.0189654
0.043078
0.0191193
0.0433556
0.0192865
0.0436389
0.0194866
0.0439573
0.019719
0.0443361
0.0199782
0.0447975
0.0202638
0.0453586
0.0205652
0.0460345
0.0208514
0.046831
0.0211661
0.0477655
0.0214182
0.0488331
0.0217351
0.0500467
0.0220304
0.0514072
0.0223692
0.0529234
0.022727
0.054602
0.0230656
0.0564378
0.0234338
0.0584246
0.023856
0.0605582
0.0243147
0.0628379
0.0247892
0.0652642
0.0252864
0.0678411
0.0257907
0.0705714
0.0262763
0.0734559
0.0267168
0.0764918
0.0271059
0.0796743
0.0274503
0.0829975
0.0277638
0.0864541
0.0280642
0.0900362
0.0283628
0.0937357
0.0286636
0.097544
0.0289592
0.101451
0.0292434
0.105442
0.0295208
0.109504
0.0298084
0.113621
0.0301136
0.117777
0.030427
0.121957
0.0307342
0.126142
0.0310349
0.130314
0.0313437
0.134454
0.0316839
0.138547
0.032078
0.142583
0.0325282
0.146556
0.0330183
0.150454
0.0335136
0.154258
0.0339807
0.157936
0.0344013
0.161446
0.0347743
0.16474
0.0351058
0.167765
0.0354088
0.17046
0.0356981
0.172769
0.0359809
0.174651
0.0362675
0.176008
0.0365439
0.176579
0.0368058
0.176544
0.0370962
0.176185
0.0373582
0.175451
0.0375103
0.174348
0.0376894
0.173023
0.0379603
0.171742
0.0385097
0.170699
0.0392129
0.169671
0.0394719
0.168296
0.0391854
0.166384
0.0386481
0.16437
0.0383393
0.162605
0.0384932
0.161109
0.0388428
0.159685
0.0389953
0.158286
0.0388934
0.15701
0.0387048
0.15599
0.0386022
0.155354
0.0386651
0.155188
0.0388672
0.155304
0.039174
0.155814
0.0394875
0.156854
0.0397073
0.158498
0.0399438
0.160822
0.0401351
0.163856
0.0402955
0.167637
0.0405352
0.172226
0.0407583
0.177622
0.0411042
0.183863
0.0414172
0.190938
0.0418439
0.198871
0.0422729
0.207654
0.0425861
0.217237
0.0430224
0.227634
0.0435967
0.238871
0.0440784
0.250913
0.0444368
0.263708
0.0448931
0.277261
0.0453973
0.291589
0.0459397
0.306711
0.0465001
0.322633
0.0468061
0.3393
0.0471548
0.356721
0.0477195
0.374942
0.0482363
0.393975
0.0489781
0.413903
0.0499442
0.434787
0.0507051
0.456615
0.051509
0.479407
0.0524113
0.503149
0.0531273
0.527815
0.0540399
0.553399
0.0550198
0.579792
0.0557686
0.606832
0.0568103
0.634335
0.0580326
0.662031
0.0593008
0.689635
0.0610432
0.716681
0.0628503
0.742453
0.0648427
0.766112
0.0671867
0.786751
0.0697918
0.804042
0.0725168
0.818941
0.0759876
0.834088
0.0801101
0.855341
0.0838514
0.890913
0.0894047
0.945965
0.0933899
1.0311
0.0943071
1.15921
0.0939295
1.34596
0.0943604
1.62019
0.0960367
2.07093
0.100656
2.92208
0.1178
4.71622
0.155623
6.03749
0.19298
3.80265
0.151576
0.851709
0.0504081
0.775641
0.0354038
0.778363
0.0338291
0.791426
0.0315131
0.799489
0.0286451
0.805782
0.0254422
0.811435
0.0220496
0.816542
0.0186027
0.821005
0.0152026
0.824652
0.0119478
0.827229
0.00895789
0.828504
0.00639357
0.828705
0.00440813
0.828344
0.00306334
0.827565
0.00210871
0.826415
0.00133944
0.000754303
0.00415023
0.0201716
0.00753953
0.022812
0.0109181
0.0214647
0.0143967
0.0209941
0.0178214
0.0210751
0.0211133
0.0211133
0.0242287
0.0210709
0.0271365
0.0210121
0.0297939
0.0210524
0.0321619
0.0211532
0.0342275
0.0212584
0.036006
0.0213644
0.0375269
0.0214737
0.0388137
0.0215804
0.0398865
0.0217417
0.0407871
0.0218186
0.041516
0.0219161
0.0421045
0.0220882
0.0425791
0.0222483
0.0429638
0.0224388
0.0432911
0.0226323
0.0435903
0.0228428
0.0438938
0.023088
0.0442301
0.0233678
0.0446232
0.0236769
0.0450949
0.0240147
0.0456608
0.0243733
0.0463338
0.0247219
0.0471198
0.0251084
0.0480328
0.0254337
0.0490706
0.0258399
0.0502481
0.0262245
0.0515687
0.0266622
0.0530455
0.0271156
0.0546845
0.0275493
0.0564832
0.0280156
0.0584414
0.0285331
0.0605582
0.0290829
0.0628348
0.0296417
0.0652731
0.030216
0.0678767
0.0307882
0.0706441
0.0313374
0.0735696
0.0318406
0.076643
0.0322949
0.0798539
0.0327061
0.0831925
0.033087
0.0866503
0.0334545
0.0902207
0.033819
0.0938977
0.0341848
0.0976747
0.0345457
0.101542
0.0348977
0.105489
0.0352468
0.109503
0.0356092
0.11357
0.0359907
0.117676
0.0363807
0.121804
0.0367655
0.125935
0.0371463
0.13005
0.0375395
0.134133
0.0379667
0.138172
0.038448
0.142163
0.0389819
0.1461
0.0395508
0.149974
0.0401195
0.153764
0.0406567
0.157436
0.0411451
0.160946
0.0415845
0.164246
0.0419785
0.167284
0.0423414
0.170009
0.0426932
0.172369
0.0430437
0.174313
0.0433979
0.175749
0.0437475
0.176455
0.0440908
0.176479
0.0444611
0.176205
0.0447873
0.175568
0.0450293
0.174579
0.0452897
0.173349
0.0455375
0.172086
0.0459212
0.170962
0.046348
0.169833
0.0465573
0.168495
0.0464917
0.166861
0.0463167
0.165075
0.0462048
0.163345
0.0463436
0.161741
0.0465426
0.160201
0.0466138
0.158733
0.0465153
0.157418
0.0463957
0.156368
0.0463894
0.155672
0.0464964
0.155441
0.0467013
0.155527
0.0469841
0.155983
0.0472498
0.156953
0.0474607
0.158536
0.0477403
0.160817
0.0479901
0.163815
0.048246
0.167569
0.0485825
0.172136
0.0488785
0.177516
0.0493206
0.18374
0.0497097
0.190804
0.0502165
0.198725
0.0507008
0.207476
0.0510902
0.217025
0.0516252
0.227407
0.0522577
0.238633
0.0527765
0.250653
0.0532156
0.263435
0.0537877
0.277002
0.0543846
0.29136
0.055016
0.306512
0.0556677
0.32244
0.0560893
0.339095
0.0566167
0.356514
0.0573374
0.374742
0.0579774
0.393811
0.0588322
0.413812
0.0598444
0.434764
0.0606539
0.456644
0.0615646
0.479475
0.062581
0.503231
0.0634584
0.527894
0.0645642
0.55345
0.065744
0.579778
0.0667808
0.606751
0.068165
0.634219
0.0697239
0.66193
0.0713446
0.689604
0.073384
0.716747
0.0754943
0.74263
0.0778477
0.76638
0.0805742
0.787078
0.083646
0.804386
0.0869705
0.819329
0.0911344
0.834615
0.0960346
0.85634
0.100434
0.892557
0.10653
0.948175
0.110381
1.03395
0.111275
1.1627
0.110799
1.35035
0.110764
1.6262
0.112271
2.08229
0.117758
2.94823
0.136463
4.75637
0.189044
6.05616
0.236922
3.6336
0.181725
0.837117
0.0596081
0.771636
0.0419902
0.774857
0.0399056
0.786417
0.0369542
0.793746
0.0335717
0.799742
0.02997
0.805343
0.0262371
0.810562
0.0224761
0.815304
0.0187721
0.819449
0.0151923
0.822826
0.0118222
0.825194
0.00878147
0.826338
0.00621909
0.826491
0.00426486
0.826124
0.00295392
0.825371
0.00202482
0.00128306
0.00412556
0.0228414
0.00752194
0.0261926
0.0108815
0.0248427
0.0143331
0.0242047
0.0177639
0.0241999
0.0210709
0.0242287
0.0242015
0.0242015
0.027115
0.0241584
0.0297694
0.0242067
0.0321344
0.0243076
0.0342029
0.0244101
0.0359915
0.0245127
0.0375258
0.024618
0.0388237
0.0247287
0.0399103
0.0248991
0.0408246
0.0249804
0.0415651
0.0251164
0.0421711
0.0253192
0.0426656
0.0255179
0.0430748
0.0257532
0.0434306
0.0259932
0.0437616
0.0262541
0.0440985
0.0265501
0.0444684
0.0268824
0.0448937
0.0272466
0.0453947
0.0276408
0.0459851
0.0280611
0.0466757
0.0284771
0.0474736
0.0289394
0.0483888
0.029345
0.0494234
0.0298442
0.0505939
0.0303205
0.0519056
0.0308581
0.0533743
0.031406
0.0550036
0.0319362
0.0567928
0.0325003
0.0587456
0.0331092
0.0608618
0.0337457
0.0631428
0.0343847
0.06559
0.0350327
0.0682053
0.0356717
0.0709836
0.0362871
0.0739154
0.0368593
0.0769874
0.0373872
0.0801882
0.0378741
0.0835081
0.0383307
0.0869406
0.0387715
0.0904814
0.0392058
0.0941273
0.0396382
0.0978737
0.0400644
0.101712
0.0404838
0.105633
0.0409036
0.109624
0.0413393
0.113672
0.0417955
0.117762
0.0422626
0.121875
0.0427282
0.12599
0.0431943
0.130088
0.0436762
0.134153
0.0441921
0.138178
0.0447583
0.142158
0.0453704
0.146088
0.0460126
0.149957
0.0466515
0.153743
0.0472602
0.157409
0.0478218
0.16091
0.0483359
0.164198
0.0488011
0.167224
0.04923
0.169946
0.0496425
0.172319
0.0500511
0.174289
0.0504597
0.17577
0.0508696
0.176573
0.0512773
0.176663
0.0517009
0.176439
0.0520791
0.175881
0.0523947
0.175015
0.0527142
0.173887
0.0529746
0.172636
0.0532785
0.171386
0.0535496
0.170085
0.0537282
0.168653
0.0537827
0.167084
0.0537848
0.165419
0.0538019
0.163769
0.0539313
0.162192
0.0540505
0.160698
0.0540929
0.159312
0.0540506
0.158091
0.0540466
0.15711
0.0541414
0.156435
0.054289
0.156205
0.0544979
0.156284
0.0547635
0.156708
0.0550103
0.157622
0.0552476
0.159146
0.0555836
0.161374
0.0558856
0.164322
0.0562263
0.16804
0.0566399
0.17258
0.056995
0.177942
0.0575195
0.184155
0.0579755
0.191213
0.0585495
0.199128
0.0590827
0.207856
0.0595556
0.217388
0.0601784
0.22776
0.0608534
0.238969
0.0614117
0.250965
0.0619363
0.263734
0.0626075
0.277312
0.0632686
0.291692
0.0639722
0.306871
0.0647073
0.322822
0.0652484
0.339512
0.065942
0.35699
0.0667928
0.375283
0.0675489
0.394422
0.0685113
0.41448
0.069584
0.435443
0.0704949
0.457297
0.071554
0.480075
0.0727162
0.503762
0.0737807
0.528362
0.0750837
0.55386
0.0764644
0.580158
0.0777665
0.607162
0.0794367
0.634734
0.081267
0.662628
0.0831638
0.690512
0.085461
0.717847
0.0878839
0.743912
0.0906017
0.767788
0.0937507
0.788585
0.0972908
0.805975
0.101204
0.821023
0.106071
0.836521
0.111787
0.85876
0.116806
0.895557
0.123695
0.951628
0.127837
1.03798
0.128677
1.16758
0.12823
1.35669
0.128336
1.63509
0.131048
2.09873
0.139796
2.98833
0.160404
4.81242
0.224174
6.09276
0.28417
3.4326
0.209855
0.820092
0.0669059
0.766499
0.0482318
0.770275
0.0456464
0.780447
0.0421741
0.787254
0.0383915
0.793103
0.0344553
0.798716
0.0304264
0.804057
0.0264038
0.809041
0.0224553
0.81358
0.0186254
0.817562
0.0149723
0.820819
0.0115779
0.823103
0.00855098
0.824197
0.00602674
0.824335
0.0041231
0.823982
0.00285425
0.00195546
0.00410431
0.0253191
0.00750378
0.0293611
0.0108529
0.0280252
0.0142719
0.0272433
0.0176977
0.0271291
0.0210121
0.0271365
0.0241584
0.027115
0.0270854
0.0270854
0.0297488
0.0271399
0.0321227
0.0272354
0.034204
0.0273292
0.0360097
0.0274241
0.0375615
0.027527
0.0388758
0.0276488
0.0399852
0.0278325
0.0409217
0.0279314
0.0416852
0.0281168
0.0423186
0.0283558
0.0428408
0.0286007
0.0432805
0.0288855
0.0436688
0.0291786
0.0440336
0.0294976
0.0444044
0.0298519
0.0448071
0.0302431
0.0452632
0.0306679
0.0457917
0.0311236
0.0464051
0.0316101
0.0471131
0.0320979
0.0479236
0.0326386
0.0488443
0.0331297
0.0498812
0.0337231
0.0510521
0.0342915
0.0523637
0.0349285
0.0538325
0.0355697
0.0554591
0.0361982
0.0572443
0.0368605
0.0591933
0.0375595
0.0613054
0.038282
0.0635818
0.0390016
0.0660231
0.0397252
0.0686308
0.0404338
0.0713986
0.0411197
0.0743171
0.0417648
0.0773743
0.042369
0.0805603
0.0429325
0.0838668
0.043464
0.0872879
0.0439765
0.0908198
0.0444789
0.0944587
0.044977
0.098199
0.045469
0.102032
0.0459574
0.105946
0.0464499
0.10993
0.0469609
0.113972
0.0474941
0.118055
0.0480416
0.12216
0.0485927
0.126266
0.0491492
0.130355
0.0497236
0.134414
0.0503289
0.138435
0.0509784
0.142414
0.0516655
0.146343
0.0523788
0.150209
0.0530884
0.153987
0.0537725
0.157643
0.0544129
0.161133
0.0550086
0.164411
0.055552
0.16743
0.0560527
0.170153
0.0565259
0.172539
0.0569876
0.174535
0.0574437
0.17606
0.0579017
0.176941
0.0583564
0.177092
0.0588191
0.176898
0.0592408
0.176395
0.0596132
0.175616
0.059975
0.17458
0.0602655
0.173375
0.0605442
0.172071
0.0607554
0.170677
0.0609233
0.169183
0.0610349
0.167617
0.0611144
0.165999
0.0612058
0.164393
0.0613435
0.162852
0.0614516
0.161409
0.0615228
0.160085
0.061572
0.158917
0.0616798
0.157954
0.0618478
0.15727
0.0620269
0.157022
0.0622435
0.157088
0.0625156
0.157479
0.0627794
0.158348
0.0630638
0.159826
0.0634524
0.162017
0.0637902
0.164936
0.0641993
0.16864
0.0646701
0.173173
0.0650735
0.178536
0.0656683
0.184749
0.066184
0.19181
0.066814
0.19972
0.0673933
0.208432
0.0679514
0.217954
0.0686463
0.228317
0.0693557
0.239506
0.0699611
0.251477
0.0705709
0.264234
0.0713264
0.277808
0.0720366
0.292187
0.0728072
0.307363
0.073625
0.323311
0.0742877
0.340017
0.075128
0.357528
0.0760903
0.375848
0.0769672
0.395017
0.0780364
0.415086
0.0791906
0.436029
0.0802396
0.457867
0.0814497
0.480634
0.0827573
0.50433
0.084001
0.528973
0.0854783
0.554527
0.0870542
0.580915
0.0885933
0.608056
0.0905057
0.635803
0.0925816
0.66391
0.0947207
0.691992
0.0972747
0.719478
0.10004
0.745672
0.103129
0.769621
0.106752
0.790459
0.110789
0.807854
0.115303
0.822885
0.120914
0.838438
0.127483
0.86086
0.133197
0.897899
0.141158
0.954495
0.145833
1.04165
0.146727
1.17273
0.146246
1.36419
0.146877
1.64721
0.151155
2.12112
0.163048
3.03917
0.190932
4.88322
0.259053
6.12096
0.320608
3.20317
0.230799
0.802508
0.0724261
0.760437
0.0540936
0.764699
0.0511006
0.773732
0.047208
0.780171
0.0431115
0.785958
0.0389097
0.79163
0.0346461
0.797116
0.0304133
0.802332
0.0262667
0.80721
0.0222354
0.811665
0.0183588
0.815588
0.014694
0.818803
0.0113154
0.821051
0.00832249
0.822118
0.0058457
0.822251
0.00399509
0.00276581
0.00407595
0.0275778
0.00751053
0.0322519
0.010897
0.0309274
0.014311
0.0300399
0.0177353
0.0298125
0.0210524
0.0297939
0.0242067
0.0297694
0.0271399
0.0297488
0.0298061
0.0298061
0.0321843
0.0298934
0.0342743
0.0299802
0.0360932
0.0300736
0.0376587
0.0301856
0.0389886
0.03033
0.0401218
0.0305326
0.0410778
0.0306651
0.0418633
0.0309071
0.0425219
0.0311879
0.0430703
0.0314862
0.0435396
0.0318241
0.0439588
0.0321751
0.0443571
0.0325565
0.0447633
0.0329737
0.0452022
0.0334279
0.045694
0.0339174
0.0462557
0.034439
0.0468985
0.0349959
0.0476315
0.0355591
0.0484628
0.0361805
0.0493983
0.0367609
0.0504477
0.0374487
0.0516293
0.0381094
0.0529508
0.0388447
0.0544284
0.0395784
0.05606
0.040307
0.057848
0.0410673
0.0597983
0.0418556
0.0619097
0.0426647
0.0641832
0.043466
0.0666191
0.0442673
0.0692188
0.0450486
0.0719761
0.0458088
0.0748829
0.0465295
0.0779289
0.047211
0.0811055
0.0478506
0.0844046
0.0484565
0.0878203
0.0490404
0.0913474
0.0496121
0.0949809
0.0501782
0.0987142
0.0507394
0.102537
0.0513006
0.10644
0.0518687
0.110412
0.0524574
0.114441
0.053069
0.118512
0.0536983
0.122607
0.0543364
0.126708
0.0549842
0.130796
0.0556512
0.13486
0.0563445
0.13889
0.057075
0.142879
0.0578353
0.146816
0.0586195
0.150687
0.0594014
0.154465
0.0601649
0.15812
0.0608884
0.161611
0.06157
0.164895
0.0621961
0.167925
0.062773
0.170664
0.0633092
0.173073
0.0638247
0.175101
0.0643274
0.176669
0.0648271
0.177612
0.0653189
0.177815
0.0658144
0.177644
0.0662733
0.17717
0.0666929
0.176428
0.0670959
0.175439
0.0674269
0.174256
0.0677193
0.172923
0.0679339
0.171477
0.0681138
0.169944
0.0682592
0.168355
0.0683824
0.166739
0.0685248
0.165148
0.0686915
0.163632
0.0688299
0.162222
0.0689553
0.160928
0.0690845
0.159776
0.0692626
0.158813
0.0694709
0.158131
0.069674
0.157899
0.0699165
0.157975
0.0702182
0.158374
0.0705197
0.159242
0.0708604
0.160709
0.0712967
0.16288
0.0716641
0.16578
0.0721353
0.16947
0.0726541
0.173986
0.0731028
0.179333
0.0737588
0.185526
0.0743259
0.192567
0.0749987
0.200452
0.0756186
0.209137
0.0762519
0.218645
0.0769963
0.228994
0.0777345
0.240158
0.0783916
0.25211
0.0790801
0.264854
0.0799086
0.278418
0.0806635
0.292786
0.0815012
0.307952
0.0824011
0.323896
0.083181
0.340628
0.0841394
0.358182
0.0851945
0.376549
0.0861919
0.395784
0.0873548
0.41591
0.0886029
0.436896
0.0898108
0.458792
0.0911636
0.481613
0.0926274
0.505367
0.0940577
0.530079
0.0957048
0.55569
0.0974924
0.582147
0.099261
0.609378
0.101395
0.637218
0.103719
0.665433
0.106095
0.693609
0.108907
0.721149
0.11203
0.747384
0.115485
0.77135
0.11961
0.792195
0.124171
0.809603
0.129271
0.824675
0.135611
0.840399
0.143018
0.863063
0.149534
0.90044
0.158722
0.957771
0.163993
1.04598
0.165286
1.17866
0.164961
1.37272
0.166213
1.66154
0.171728
2.14951
0.185068
3.09836
0.220256
4.96717
0.299855
6.12911
0.354458
2.95965
0.248333
0.785627
0.0774315
0.75367
0.0595921
0.758268
0.0562991
0.766449
0.0520814
0.772633
0.0477523
0.778408
0.0433563
0.784167
0.0389186
0.789812
0.0345222
0.795256
0.0302147
0.800434
0.0260157
0.805281
0.0219528
0.809719
0.0180685
0.813634
0.0144158
0.816838
0.0110625
0.81906
0.00810597
0.820101
0.00567692
0.00387583
0.00399116
0.0296403
0.00748509
0.0348091
0.0109546
0.0334691
0.0144002
0.0325197
0.0178335
0.0322
0.0211532
0.0321619
0.0243076
0.0321344
0.0272354
0.0321227
0.0298934
0.0321843
0.032268
0.032268
0.0343621
0.0323572
0.0361918
0.0324603
0.0377715
0.0325938
0.0391222
0.0327677
0.0402847
0.0329924
0.041265
0.0331726
0.0420803
0.0334739
0.0427724
0.0338003
0.0433556
0.0341575
0.0438611
0.0345532
0.0443157
0.034968
0.0447498
0.0354161
0.0451922
0.0359009
0.045667
0.0364229
0.0461932
0.0369819
0.0467868
0.0375738
0.0474581
0.0382048
0.0482156
0.0388462
0.0490678
0.0395504
0.0500194
0.0402222
0.0510834
0.0410037
0.0522776
0.0417561
0.0536104
0.0425883
0.0550968
0.0434142
0.0567331
0.0442435
0.0585238
0.0451005
0.0604749
0.045977
0.0625846
0.0468724
0.0648547
0.0477556
0.067285