/*--------------------------------*- C++ -*----------------------------------*\
  =========                 |
  \\      /  F ield         | OpenFOAM: The Open Source CFD Toolbox
   \\    /   O peration     | Website:  https://openfoam.org
    \\  /    A nd           | Version:  13
     \\/     M anipulation  |
\*---------------------------------------------------------------------------*/
FoamFile
{
    format      ascii;
    class       volScalarField;
    location    "0.002";
    object      Qdot;
}
// * * * * * * * * * * * * * * * * * * * * * * * * * * * * * * * * * * * * * //

dimensions      [1 -1 -3 0 0 0 0];

internalField   nonuniform List<scalar> 
33334
(
-2.65646e-21
-2.67954e-21
-2.77539e-21
-3.01899e-21
-3.52364e-21
-4.45861e-21
-6.10909e-21
-8.99429e-21
-1.41242e-20
-2.35882e-20
-4.19499e-20
-7.94963e-20
-1.60123e-19
-3.40689e-19
-7.58804e-19
-1.75096e-18
-4.1431e-18
-9.95801e-18
-2.41145e-17
-5.84255e-17
-1.40827e-16
-3.36297e-16
-7.93648e-16
-1.85011e-15
-4.26422e-15
-9.73812e-15
-2.20946e-14
-4.98902e-14
-1.12299e-13
-2.52096e-13
-5.63618e-13
-1.25151e-12
-2.74957e-12
-5.95333e-12
-1.26565e-11
-2.63374e-11
-5.35132e-11
-1.05959e-10
-2.04135e-10
-3.82118e-10
-6.94114e-10
-1.22212e-09
-2.08358e-09
-3.43705e-09
-5.48317e-09
-8.45745e-09
-1.26114e-08
-1.81816e-08
-2.53559e-08
-3.42588e-08
-4.49827e-08
-5.76851e-08
-7.25888e-08
-8.9581e-08
-1.07165e-07
-1.21747e-07
-1.30234e-07
-1.34327e-07
-1.36209e-07
-1.34556e-07
-1.29229e-07
-1.20788e-07
-1.10098e-07
-9.81944e-08
-8.6183e-08
-7.50498e-08
-6.54541e-08
-5.76435e-08
-5.15262e-08
-4.68257e-08
-4.32157e-08
-4.04005e-08
-3.81569e-08
-3.63359e-08
-3.48391e-08
-3.36226e-08
-3.26278e-08
-3.17865e-08
-3.10725e-08
-3.04084e-08
-2.97967e-08
-2.91756e-08
-2.86412e-08
-2.80935e-08
-2.76678e-08
-2.72926e-08
-2.70052e-08
-2.68286e-08
-2.67595e-08
-2.67853e-08
-2.69028e-08
-2.71214e-08
-2.74658e-08
-2.79502e-08
-2.85902e-08
-2.94125e-08
-3.04469e-08
-3.17231e-08
-3.32752e-08
-3.51354e-08
-3.73443e-08
-3.9945e-08
-4.30154e-08
-4.66437e-08
-5.09542e-08
-5.61018e-08
-6.22635e-08
-6.96475e-08
-7.85163e-08
-8.92069e-08
-1.02173e-07
-1.18035e-07
-1.37652e-07
-1.62144e-07
-1.92975e-07
-2.32023e-07
-2.81801e-07
-3.45814e-07
-4.29219e-07
-5.39921e-07
-6.90378e-07
-9.00642e-07
-1.20351e-06
-1.65332e-06
-2.34269e-06
-3.43422e-06
-5.22438e-06
-8.27417e-06
-1.36754e-05
0.000105558
0.000398683
0.000511579
0.00140079
0.00270642
0.00440002
0.00607472
0.00712079
0.0073342
0.00892031
0.0197438
0.168435
4.58167
200.252
8550.05
329942
9.94318e+06
7.52257e+09
1.31645e+12
3.43092e+08
0.271811
0.00711269
0.0076407
0.00873443
0.00976422
0.0108046
0.0117786
0.0126226
0.0130163
0.0131921
0.0132317
0.0132416
0.0131999
0.0130278
0.0129551
0.0127167
0.0124669
-2.67954e-21
-2.70248e-21
-2.79947e-21
-3.04357e-21
-3.55007e-21
-4.48648e-21
-6.13429e-21
-9.00707e-21
-1.41099e-20
-2.3527e-20
-4.17913e-20
-7.91225e-20
-1.59263e-19
-3.38711e-19
-7.54174e-19
-1.7399e-18
-4.11618e-18
-9.8911e-18
-2.3947e-17
-5.80053e-17
-1.39778e-16
-3.337e-16
-7.87368e-16
-1.83506e-15
-4.22832e-15
-9.64834e-15
-2.18425e-14
-4.92069e-14
-1.1053e-13
-2.47678e-13
-5.52903e-13
-1.22624e-12
-2.69174e-12
-5.82505e-12
-1.23817e-11
-2.57693e-11
-5.23822e-11
-1.03791e-10
-2.00132e-10
-3.74994e-10
-6.81891e-10
-1.20189e-09
-2.05134e-09
-3.38764e-09
-5.41061e-09
-8.35575e-09
-1.24758e-08
-1.80081e-08
-2.51367e-08
-3.39793e-08
-4.46328e-08
-5.72525e-08
-7.2058e-08
-8.89553e-08
-1.06538e-07
-1.21338e-07
-1.301e-07
-1.34324e-07
-1.36457e-07
-1.35077e-07
-1.29983e-07
-1.2171e-07
-1.11112e-07
-9.92191e-08
-8.71414e-08
-7.58851e-08
-6.61404e-08
-5.81839e-08
-5.19417e-08
-4.71416e-08
-4.34563e-08
-4.05902e-08
-3.83075e-08
-3.64405e-08
-3.49173e-08
-3.36905e-08
-3.26849e-08
-3.18372e-08
-3.10881e-08
-3.03988e-08
-2.97694e-08
-2.91414e-08
-2.84927e-08
-2.78975e-08
-2.74242e-08
-2.70775e-08
-2.68635e-08
-2.67516e-08
-2.6713e-08
-2.67386e-08
-2.68486e-08
-2.70632e-08
-2.74015e-08
-2.78628e-08
-2.84718e-08
-2.92655e-08
-3.02684e-08
-3.15096e-08
-3.30249e-08
-3.48521e-08
-3.70221e-08
-3.9589e-08
-4.26122e-08
-4.61862e-08
-5.04321e-08
-5.54882e-08
-6.15294e-08
-6.8771e-08
-7.74672e-08
-8.79322e-08
-1.00604e-07
-1.16087e-07
-1.35192e-07
-1.59027e-07
-1.88994e-07
-2.26933e-07
-2.75337e-07
-3.37626e-07
-4.18816e-07
-5.26639e-07
-6.7311e-07
-8.7757e-07
-1.17176e-06
-1.60823e-06
-2.27647e-06
-3.33423e-06
-5.06853e-06
-8.02291e-06
0.0001128
0.000105986
0.000398935
0.000512444
0.00126085
0.00270505
0.00439575
0.00606572
0.00677472
0.00749822
0.00871531
0.0196856
0.169124
4.59875
200.976
8482.78
327234
9.53293e+06
7.66665e+09
1.32326e+12
3.09283e+08
0.250431
0.00739874
0.00812926
0.00924293
0.0103922
0.0112972
0.0119212
0.0124177
0.0128228
0.0130102
0.0130446
0.0130665
0.0130384
0.0130084
0.0129125
0.0127026
0.0124621
-2.77539e-21
-2.79947e-21
-2.90368e-21
-3.15846e-21
-3.6827e-21
-4.64568e-21
-6.32895e-21
-9.24738e-21
-1.44199e-20
-2.39704e-20
-4.2492e-20
-8.03365e-20
-1.61554e-19
-3.43359e-19
-7.64109e-19
-1.76181e-18
-4.16507e-18
-1.00001e-17
-2.4187e-17
-5.85235e-17
-1.40865e-16
-3.35896e-16
-7.91583e-16
-1.84245e-15
-4.23848e-15
-9.65098e-15
-2.17939e-14
-4.89844e-14
-1.09815e-13
-2.45676e-13
-5.47728e-13
-1.21359e-12
-2.66226e-12
-5.75942e-12
-1.2242e-11
-2.54854e-11
-5.18321e-11
-1.02775e-10
-1.98341e-10
-3.71982e-10
-6.77053e-10
-1.19449e-09
-2.04061e-09
-3.37309e-09
-5.39258e-09
-8.33636e-09
-1.24601e-08
-1.80051e-08
-2.51587e-08
-3.40399e-08
-4.47457e-08
-5.74238e-08
-7.22865e-08
-8.92812e-08
-1.07149e-07
-1.22538e-07
-1.3184e-07
-1.36357e-07
-1.38937e-07
-1.37965e-07
-1.33132e-07
-1.24946e-07
-1.14269e-07
-1.02148e-07
-8.97304e-08
-7.80732e-08
-6.79254e-08
-5.96082e-08
-5.30673e-08
-4.80289e-08
-4.41606e-08
-4.116e-08
-3.8765e-08
-3.67972e-08
-3.52055e-08
-3.39174e-08
-3.28593e-08
-3.19747e-08
-3.12077e-08
-3.05142e-08
-2.98317e-08
-2.92211e-08
-2.86518e-08
-2.81454e-08
-2.76929e-08
-2.73244e-08
-2.70448e-08
-2.68552e-08
-2.67525e-08
-2.67398e-08
-2.68335e-08
-2.70521e-08
-2.73832e-08
-2.7835e-08
-2.84257e-08
-2.9193e-08
-3.01719e-08
-3.13913e-08
-3.28887e-08
-3.47017e-08
-3.68626e-08
-3.94202e-08
-4.24324e-08
-4.59861e-08
-5.01921e-08
-5.51862e-08
-6.11393e-08
-6.82568e-08
-7.67856e-08
-8.70355e-08
-9.94183e-08
-1.14491e-07
-1.3302e-07
-1.56032e-07
-1.84886e-07
-2.21416e-07
-2.68096e-07
-3.28347e-07
-4.0715e-07
-5.12035e-07
-6.54681e-07
-8.538e-07
-1.13998e-06
-1.56434e-06
-2.2144e-06
-3.24457e-06
-4.93762e-06
-7.82938e-06
0.000113227
0.000278432
0.000400169
0.000514355
0.00126453
0.0025664
0.00420418
0.00576182
0.00651269
0.00669386
0.00867726
0.0190176
0.165561
4.55527
203.844
8846.74
350534
9.42801e+06
8.39593e+09
1.31585e+12
2.32282e+08
0.201154
0.00713518
0.00778892
0.00890345
0.00990774
0.0108053
0.0115725
0.0119806
0.0124447
0.0127789
0.0129647
0.0129665
0.0129586
0.012955
0.0128321
0.0126548
0.0124414
-3.01899e-21
-3.04357e-21
-3.15846e-21
-3.43982e-21
-4.01445e-21
-5.06253e-21
-6.88253e-21
-1.00189e-20
-1.55489e-20
-2.57182e-20
-4.53889e-20
-8.54916e-20
-1.71365e-19
-3.63156e-19
-8.05936e-19
-1.85314e-18
-4.36843e-18
-1.04571e-17
-2.52143e-17
-6.08174e-17
-1.45925e-16
-3.46858e-16
-8.14671e-16
-1.88898e-15
-4.32659e-15
-9.80942e-15
-2.20903e-14
-4.95406e-14
-1.10855e-13
-2.4762e-13
-5.51416e-13
-1.22078e-12
-2.67685e-12
-5.79039e-12
-1.231e-11
-2.56375e-11
-5.21706e-11
-1.03512e-10
-1.99894e-10
-3.7513e-10
-6.83187e-10
-1.20599e-09
-2.06143e-09
-3.40957e-09
-5.45456e-09
-8.43856e-09
-1.2624e-08
-1.82627e-08
-2.55606e-08
-3.46547e-08
-4.56365e-08
-5.86392e-08
-7.38765e-08
-9.13825e-08
-1.10074e-07
-1.2654e-07
-1.36712e-07
-1.4171e-07
-1.44672e-07
-1.44074e-07
-1.39358e-07
-1.30985e-07
-1.19871e-07
-1.07135e-07
-9.40015e-08
-8.16137e-08
-7.07952e-08
-6.19102e-08
-5.4913e-08
-4.95172e-08
-4.5372e-08
-4.21576e-08
-3.95854e-08
-3.74668e-08
-3.57622e-08
-3.4373e-08
-3.32263e-08
-3.22624e-08
-3.14204e-08
-3.06713e-08
-2.99666e-08
-2.93063e-08
-2.86784e-08
-2.8133e-08
-2.76829e-08
-2.73335e-08
-2.70764e-08
-2.69012e-08
-2.68046e-08
-2.67937e-08
-2.68878e-08
-2.71077e-08
-2.74331e-08
-2.78739e-08
-2.84491e-08
-2.9196e-08
-3.01575e-08
-3.13622e-08
-3.28484e-08
-3.46535e-08
-3.68102e-08
-3.93657e-08
-4.23751e-08
-4.5922e-08
-5.01111e-08
-5.50744e-08
-6.09793e-08
-6.80276e-08
-7.64632e-08
-8.65903e-08
-9.88052e-08
-1.13622e-07
-1.31722e-07
-1.54085e-07
-1.82056e-07
-2.17477e-07
-2.62848e-07
-3.21629e-07
-3.98851e-07
-5.02057e-07
-6.42883e-07
-8.3982e-07
-1.12289e-06
-1.54218e-06
-2.18451e-06
-3.20432e-06
-4.88478e-06
-7.76292e-06
0.000113341
0.000278602
0.000400362
0.000514524
0.00126478
0.00256686
0.00420532
0.00576429
0.00651608
0.0066974
0.00868236
0.0194784
0.171656
4.83974
221.799
9921.64
407573
1.1819e+07
9.75584e+09
1.27154e+12
1.49479e+08
0.153574
0.00705855
0.0076476
0.00870677
0.00965537
0.010418
0.0110383
0.0116152
0.0119337
0.0123417
0.0126348
0.012785
0.0128243
0.0127973
0.0127155
0.0125779
0.0123978
-3.52364e-21
-3.55007e-21
-3.6827e-21
-4.01445e-21
-4.68997e-21
-5.91784e-21
-8.04152e-21
-1.16843e-20
-1.80701e-20
-2.974e-20
-5.21857e-20
-9.76981e-20
-1.94616e-19
-4.09831e-19
-9.03768e-19
-2.06504e-18
-4.83752e-18
-1.15083e-17
-2.75796e-17
-6.61245e-17
-1.57738e-16
-3.72806e-16
-8.70559e-16
-2.00625e-15
-4.56624e-15
-1.02906e-14
-2.30464e-14
-5.14422e-14
-1.14664e-13
-2.55346e-13
-5.67376e-13
-1.25443e-12
-2.74923e-12
-5.94815e-12
-1.26551e-11
-2.63864e-11
-5.37668e-11
-1.06826e-10
-2.06564e-10
-3.88112e-10
-7.07612e-10
-1.25047e-09
-2.13998e-09
-3.54433e-09
-5.67942e-09
-8.80367e-09
-1.3201e-08
-1.91498e-08
-2.68832e-08
-3.65588e-08
-4.82793e-08
-6.2182e-08
-7.85046e-08
-9.73522e-08
-1.17667e-07
-1.35749e-07
-1.47036e-07
-1.52597e-07
-1.55867e-07
-1.55362e-07
-1.50334e-07
-1.41224e-07
-1.29051e-07
-1.15067e-07
-1.00637e-07
-8.70333e-08
-7.51659e-08
-6.54299e-08
-5.77668e-08
-5.18567e-08
-4.73096e-08
-4.37738e-08
-4.09444e-08
-3.86084e-08
-3.67133e-08
-3.51609e-08
-3.38719e-08
-3.2784e-08
-3.1838e-08
-3.10021e-08
-3.0231e-08
-2.95234e-08
-2.88768e-08
-2.83209e-08
-2.78627e-08
-2.75072e-08
-2.72421e-08
-2.70592e-08
-2.69581e-08
-2.69493e-08
-2.70473e-08
-2.72618e-08
-2.75901e-08
-2.80287e-08
-2.8598e-08
-2.93387e-08
-3.03005e-08
-3.15113e-08
-3.30091e-08
-3.48311e-08
-3.70106e-08
-3.95941e-08
-4.26355e-08
-4.62156e-08
-5.04353e-08
-5.54245e-08
-6.13483e-08
-6.84066e-08
-7.68426e-08
-8.69575e-08
-9.91371e-08
-1.13876e-07
-1.31834e-07
-1.53984e-07
-1.81672e-07
-2.16757e-07
-2.61764e-07
-3.20206e-07
-3.97189e-07
-5.00351e-07
-6.41494e-07
-8.39326e-07
-1.12417e-06
-1.54673e-06
-2.19503e-06
-3.22627e-06
-4.92916e-06
-7.85163e-06
0.000113206
0.000106392
0.000399801
0.000513285
0.00126249
0.0027084
0.00440161
0.00607517
0.00678601
0.00750933
0.00866463
0.0205212
0.186731
5.34955
245.199
10971.8
457572
1.37869e+07
1.10799e+10
1.21025e+12
9.59665e+07
0.116965
0.00684958
0.00741072
0.00837969
0.00921434
0.00988386
0.0105094
0.0110079
0.0115119
0.0117886
0.0121704
0.0124413
0.0125725
0.012598
0.0125607
0.0124685
0.0123279
-4.45861e-21
-4.48648e-21
-4.64568e-21
-5.06253e-21
-5.91784e-21
-7.47415e-21
-1.01603e-20
-1.47506e-20
-2.27536e-20
-3.72778e-20
-6.49982e-20
-1.20743e-19
-2.38424e-19
-4.97411e-19
-1.08647e-18
-2.45906e-18
-5.70722e-18
-1.34557e-17
-3.19681e-17
-7.60148e-17
-1.79906e-16
-4.2198e-16
-9.78085e-16
-2.23761e-15
-5.05679e-15
-1.13191e-14
-2.51852e-14
-5.58909e-14
-1.23981e-13
-2.75077e-13
-6.09676e-13
-1.34605e-12
-2.94885e-12
-6.38268e-12
-1.35931e-11
-2.838e-11
-5.79129e-11
-1.15227e-10
-2.23102e-10
-4.19703e-10
-7.6616e-10
-1.35582e-09
-2.32418e-09
-3.85759e-09
-6.19764e-09
-9.63707e-09
-1.45019e-08
-2.11163e-08
-2.97551e-08
-4.06112e-08
-5.38216e-08
-6.95653e-08
-8.8132e-08
-1.09625e-07
-1.32755e-07
-1.5321e-07
-1.65824e-07
-1.7196e-07
-1.75515e-07
-1.74661e-07
-1.68622e-07
-1.57935e-07
-1.43774e-07
-1.27602e-07
-1.1101e-07
-9.54597e-08
-8.1966e-08
-7.09412e-08
-6.22854e-08
-5.5614e-08
-5.04727e-08
-4.64599e-08
-4.32467e-08
-4.05896e-08
-3.84083e-08
-3.66092e-08
-3.5105e-08
-3.38294e-08
-3.27275e-08
-3.17669e-08
-3.09149e-08
-3.01613e-08
-2.94966e-08
-2.89231e-08
-2.84446e-08
-2.80602e-08
-2.77682e-08
-2.75699e-08
-2.74678e-08
-2.74677e-08
-2.7572e-08
-2.77852e-08
-2.8112e-08
-2.85476e-08
-2.91151e-08
-2.9859e-08
-3.08374e-08
-3.20793e-08
-3.36219e-08
-3.55026e-08
-3.77553e-08
-4.04245e-08
-4.35619e-08
-4.72435e-08
-5.15643e-08
-5.66501e-08
-6.26619e-08
-6.97982e-08
-7.83022e-08
-8.84697e-08
-1.00671e-07
-1.15399e-07
-1.33362e-07
-1.55535e-07
-1.83275e-07
-2.18461e-07
-2.63659e-07
-3.2246e-07
-4.00093e-07
-5.04406e-07
-6.47584e-07
-8.48988e-07
-1.14016e-06
-1.57423e-06
-2.24296e-06
-3.30992e-06
-5.07676e-06
-8.11667e-06
-1.35496e-05
0.000105533
0.000265927
0.000510174
0.00139718
0.00289266
0.00438665
0.00621487
0.00704225
0.00742441
0.00924597
0.0226269
0.20862
6.0599
276.5
12249.1
507011
1.61917e+07
1.26453e+10
1.13507e+12
5.74979e+07
0.0863773
0.00664842
0.00716479
0.00802811
0.00875935
0.00935706
0.0098802
0.0104137
0.0108572
0.0112755
0.0117171
0.0119741
0.012293
0.0123522
0.0123676
0.0123229
0.012285
-6.10909e-21
-6.13429e-21
-6.32895e-21
-6.88253e-21
-8.04152e-21
-1.01603e-20
-1.38102e-20
-2.00202e-20
-3.07837e-20
-5.01767e-20
-8.68737e-20
-1.59962e-19
-3.1266e-19
-6.451e-19
-1.39305e-18
-3.11723e-18
-7.15458e-18
-1.66885e-17
-3.92467e-17
-9.24284e-17
-2.16776e-16
-5.04114e-16
-1.15904e-15
-2.63164e-15
-5.90585e-15
-1.31336e-14
-2.9044e-14
-6.40991e-14
-1.41528e-13
-3.12875e-13
-6.9171e-13
-1.52489e-12
-3.33864e-12
-7.22693e-12
-1.53993e-11
-3.2177e-11
-6.57217e-11
-1.3089e-10
-2.53688e-10
-4.77787e-10
-8.73392e-10
-1.54827e-09
-2.65998e-09
-4.42721e-09
-7.13646e-09
-1.11387e-08
-1.68287e-08
-2.46022e-08
-3.47994e-08
-4.76703e-08
-6.34137e-08
-8.22954e-08
-1.04685e-07
-1.30584e-07
-1.58133e-07
-1.81998e-07
-1.96295e-07
-2.03092e-07
-2.06879e-07
-2.05126e-07
-1.97199e-07
-1.83841e-07
-1.66456e-07
-1.46822e-07
-1.26876e-07
-1.08351e-07
-9.24013e-08
-7.94461e-08
-6.93115e-08
-6.15102e-08
-5.5492e-08
-5.07816e-08
-4.70043e-08
-4.38784e-08
-4.12905e-08
-3.91424e-08
-3.73369e-08
-3.5801e-08
-3.44816e-08
-3.3346e-08
-3.2367e-08
-3.1526e-08
-3.08035e-08
-3.01818e-08
-2.96575e-08
-2.92304e-08
-2.89084e-08
-2.8699e-08
-2.86041e-08
-2.86213e-08
-2.87428e-08
-2.89718e-08
-2.93148e-08
-2.97682e-08
-3.03596e-08
-3.11382e-08
-3.2168e-08
-3.34798e-08
-3.51112e-08
-3.70995e-08
-3.94788e-08
-4.22913e-08
-4.55868e-08
-4.94368e-08
-5.39323e-08
-5.91964e-08
-6.53876e-08
-7.27056e-08
-8.13962e-08
-9.17565e-08
-1.04158e-07
-1.19093e-07
-1.37272e-07
-1.59703e-07
-1.87789e-07
-2.23474e-07
-2.69425e-07
-3.2941e-07
-4.08937e-07
-5.16313e-07
-6.64486e-07
-8.74007e-07
-1.17833e-06
-1.63357e-06
-2.3367e-06
-3.46093e-06
-5.32542e-06
-8.53668e-06
-1.42808e-05
0.000104295
0.000263675
0.000687256
0.00190437
0.0030254
0.00467002
0.00677151
0.00740183
0.00797809
0.0100676
0.0244414
0.235286
6.97086
317.943
13857.8
574497
1.84613e+07
1.4902e+10
1.02727e+12
2.94837e+07
0.0597269
0.00632124
0.00684976
0.00755472
0.00825747
0.00879826
0.00928417
0.00979602
0.0102334
0.0106634
0.0110821
0.011585
0.0118382
0.0120274
0.0121318
0.0121392
0.0120896
-8.99429e-21
-9.00707e-21
-9.24738e-21
-1.00189e-20
-1.16843e-20
-1.47506e-20
-2.00202e-20
-2.89333e-20
-4.42703e-20
-7.16781e-20
-1.23061e-19
-2.24342e-19
-4.33584e-19
-8.83825e-19
-1.8849e-18
-4.16565e-18
-9.44559e-18
-2.17789e-17
-5.06614e-17
-1.18096e-16
-2.74343e-16
-6.32358e-16
-1.44211e-15
-3.25037e-15
-7.24622e-15
-1.60177e-14
-3.52276e-14
-7.73608e-14
-1.70072e-13
-3.74644e-13
-8.26011e-13
-1.8174e-12
-3.97402e-12
-8.59611e-12
-1.83115e-11
-3.82634e-11
-7.81772e-11
-1.55785e-10
-3.02203e-10
-5.69862e-10
-1.04343e-09
-1.85362e-09
-3.19296e-09
-5.3308e-09
-8.62319e-09
-1.35098e-08
-2.04889e-08
-3.00628e-08
-4.26681e-08
-5.86376e-08
-7.82618e-08
-1.01938e-07
-1.30149e-07
-1.62679e-07
-1.96666e-07
-2.25227e-07
-2.4192e-07
-2.49719e-07
-2.53466e-07
-2.50218e-07
-2.39421e-07
-2.22053e-07
-1.99879e-07
-1.75149e-07
-1.50296e-07
-1.27432e-07
-1.079e-07
-9.21264e-08
-7.98325e-08
-7.03841e-08
-6.30945e-08
-5.73817e-08
-5.27969e-08
-4.90042e-08
-4.58516e-08
-4.32273e-08
-4.10179e-08
-3.9138e-08
-3.75282e-08
-3.61478e-08
-3.49659e-08
-3.39567e-08
-3.30955e-08
-3.23596e-08
-3.17421e-08
-3.12454e-08
-3.088e-08
-3.06525e-08
-3.05602e-08
-3.05925e-08
-3.07374e-08
-3.09981e-08
-3.13804e-08
-3.18793e-08
-3.25241e-08
-3.33684e-08
-3.44771e-08
-3.58837e-08
-3.76285e-08
-3.97482e-08
-4.22762e-08
-4.52526e-08
-4.87261e-08
-5.27658e-08
-5.74617e-08
-6.29376e-08
-6.93524e-08
-7.69086e-08
-8.58569e-08
-9.65031e-08
-1.09237e-07
-1.24572e-07
-1.43244e-07
-1.66293e-07
-1.95181e-07
-2.3194e-07
-2.79375e-07
-3.41476e-07
-4.24086e-07
-5.36052e-07
-6.91161e-07
-9.1126e-07
-1.23189e-06
-1.7126e-06
-2.45638e-06
-3.64711e-06
-5.62325e-06
-9.02817e-06
0.000153401
0.000102899
0.000437684
0.000818874
0.00189633
0.00310828
0.00500182
0.0070606
0.00792629
0.00841116
0.0106347
0.0271517
0.270829
8.19352
374.978
16328.2
669026
2.13402e+07
1.82797e+10
8.81963e+11
1.28036e+07
0.0399781
0.00600294
0.00648859
0.00710287
0.00767496
0.00822446
0.00862045
0.00917046
0.00960026
0.0100348
0.0105317
0.0109593
0.0113458
0.0117069
0.0118215
0.011913
0.0119152
-1.41242e-20
-1.41099e-20
-1.44199e-20
-1.55489e-20
-1.80701e-20
-2.27536e-20
-3.07837e-20
-4.42703e-20
-6.7272e-20
-1.07977e-19
-1.83482e-19
-3.3061e-19
-6.3087e-19
-1.26881e-18
-2.66915e-18
-5.81944e-18
-1.30239e-17
-2.96594e-17
-6.81965e-17
-1.57268e-16
-3.61725e-16
-8.26215e-16
-1.86873e-15
-4.18085e-15
-9.25901e-15
-2.03449e-14
-4.45015e-14
-9.72422e-14
-2.12823e-13
-4.66979e-13
-1.02617e-12
-2.25171e-12
-4.91347e-12
-1.06121e-11
-2.2584e-11
-4.71687e-11
-9.63728e-11
-1.9214e-10
-3.73099e-10
-7.04601e-10
-1.29268e-09
-2.30197e-09
-3.9764e-09
-6.65954e-09
-1.08085e-08
-1.69913e-08
-2.58543e-08
-3.80518e-08
-5.4155e-08
-7.46081e-08
-9.98227e-08
-1.30374e-07
-1.66888e-07
-2.0881e-07
-2.51777e-07
-2.86705e-07
-3.06669e-07
-3.15909e-07
-3.19482e-07
-3.1409e-07
-2.99236e-07
-2.76206e-07
-2.4729e-07
-2.15411e-07
-1.83674e-07
-1.54707e-07
-1.30112e-07
-1.10339e-07
-9.49702e-08
-8.31767e-08
-7.4083e-08
-6.69563e-08
-6.12387e-08
-5.65176e-08
-5.25901e-08
-4.93219e-08
-4.65742e-08
-4.42405e-08
-4.22419e-08
-4.05213e-08
-3.90366e-08
-3.77556e-08
-3.66538e-08
-3.57131e-08
-3.49292e-08
-3.43072e-08
-3.38546e-08
-3.35711e-08
-3.34469e-08
-3.34666e-08
-3.36178e-08
-3.39053e-08
-3.43297e-08
-3.48828e-08
-3.55921e-08
-3.65105e-08
-3.77037e-08
-3.92077e-08
-4.10648e-08
-4.33117e-08
-4.59804e-08
-4.91087e-08
-5.27454e-08
-5.69584e-08
-6.18392e-08
-6.75147e-08
-7.41452e-08
-8.19375e-08
-9.11484e-08
-1.02096e-07
-1.15195e-07
-1.30995e-07
-1.50277e-07
-1.74132e-07
-2.04096e-07
-2.42289e-07
-2.91656e-07
-3.56404e-07
-4.42692e-07
-5.59878e-07
-7.22562e-07
-9.53869e-07
-1.29152e-06
-1.79878e-06
-2.58499e-06
-3.84559e-06
-5.94047e-06
0.000114517
0.000152655
0.000101385
0.000567722
0.000950261
0.00188734
0.00348102
0.00553425
0.00739932
0.00827934
0.00913442
0.0118184
0.0307423
0.319313
9.82793
450.874
19509.5
832745
2.62884e+07
2.30112e+10
7.20998e+11
4.89875e+06
0.0268735
0.00560033
0.0060423
0.00669173
0.00714465
0.00759434
0.00807631
0.00849241
0.00897056
0.00940432
0.00985195
0.0103609
0.0107923
0.0111719
0.0115765
0.0117336
0.0117566
-2.35882e-20
-2.3527e-20
-2.39704e-20
-2.57182e-20
-2.974e-20
-3.72778e-20
-5.01767e-20
-7.16781e-20
-1.07977e-19
-1.71473e-19
-2.87782e-19
-5.11409e-19
-9.61445e-19
-1.904e-18
-3.94359e-18
-8.46793e-18
-1.86766e-17
-4.19531e-17
-9.52407e-17
-2.17068e-16
-4.93924e-16
-1.11719e-15
-2.50462e-15
-5.55901e-15
-1.22225e-14
-2.66802e-14
-5.80056e-14
-1.26039e-13
-2.74419e-13
-5.99308e-13
-1.31154e-12
-2.86787e-12
-6.24059e-12
-1.34505e-11
-2.85854e-11
-5.96628e-11
-1.21899e-10
-2.43183e-10
-4.72786e-10
-8.94399e-10
-1.64443e-09
-2.93567e-09
-5.08496e-09
-8.54083e-09
-1.39029e-08
-2.1919e-08
-3.34422e-08
-4.93361e-08
-7.03535e-08
-9.70828e-08
-1.30086e-07
-1.70161e-07
-2.18118e-07
-2.72909e-07
-3.28071e-07
-3.71514e-07
-3.9581e-07
-4.07014e-07
-4.10381e-07
-4.02076e-07
-3.81663e-07
-3.50871e-07
-3.12734e-07
-2.71091e-07
-2.29944e-07
-1.92597e-07
-1.61013e-07
-1.35685e-07
-1.16032e-07
-1.00967e-07
-8.93611e-08
-8.02723e-08
-7.29906e-08
-6.69942e-08
-6.20107e-08
-5.78701e-08
-5.43965e-08
-5.14512e-08
-4.89244e-08
-4.67355e-08
-4.48257e-08
-4.31572e-08
-4.17062e-08
-4.04622e-08
-3.94255e-08
-3.86009e-08
-3.79898e-08
-3.75827e-08
-3.73638e-08
-3.73166e-08
-3.74298e-08
-3.77086e-08
-3.81458e-08
-3.87313e-08
-3.94885e-08
-4.04624e-08
-4.17209e-08
-4.331e-08
-4.52659e-08
-4.76248e-08
-5.04178e-08
-5.36802e-08
-5.74606e-08
-6.18254e-08
-6.68691e-08
-7.27208e-08
-7.95429e-08
-8.75472e-08
-9.69973e-08
-1.08225e-07
-1.2167e-07
-1.3792e-07
-1.57806e-07
-1.82484e-07
-2.13572e-07
-2.53288e-07
-3.04713e-07
-3.72263e-07
-4.62402e-07
-5.84999e-07
-7.55465e-07
-9.98245e-07
-1.35336e-06
-1.888e-06
-2.71854e-06
-4.05342e-06
-6.27722e-06
0.000114088
0.000151842
0.000229274
0.000564919
0.00126306
0.00220552
0.00380343
0.00581006
0.00789314
0.00896247
0.009496
0.0130509
0.0355883
0.385526
12.1114
556.757
24127.3
1.03216e+06
3.65226e+07
3.0335e+10
5.61689e+11
1.58832e+06
0.0179846
0.00518478
0.00564161
0.00616689
0.00668023
0.0070925
0.00743278
0.0079447
0.00829583
0.0087816
0.00923036
0.0097496
0.0102057
0.0106906
0.0110571
0.0113279
0.0115891
-4.19499e-20
-4.17913e-20
-4.2492e-20
-4.53889e-20
-5.21857e-20
-6.49982e-20
-8.68737e-20
-1.23061e-19
-1.83482e-19
-2.87782e-19
-4.76037e-19
-8.32354e-19
-1.53783e-18
-2.99119e-18
-6.08486e-18
-1.28384e-17
-2.78469e-17
-6.1581e-17
-1.37789e-16
-3.09894e-16
-6.96639e-16
-1.55844e-15
-3.45906e-15
-7.60781e-15
-1.65882e-14
-3.59321e-14
-7.75613e-14
-1.67406e-13
-3.62224e-13
-7.86604e-13
-1.71285e-12
-3.72965e-12
-8.08864e-12
-1.73905e-11
-3.69e-11
-7.69586e-11
-1.57241e-10
-3.13913e-10
-6.11093e-10
-1.1581e-09
-2.13381e-09
-3.8183e-09
-6.63025e-09
-1.11644e-08
-1.82185e-08
-2.87893e-08
-4.40139e-08
-6.50397e-08
-9.28607e-08
-1.28248e-07
-1.71944e-07
-2.25021e-07
-2.88512e-07
-3.60674e-07
-4.32165e-07
-4.86859e-07
-5.16825e-07
-5.30655e-07
-5.33743e-07
-5.2149e-07
-4.93519e-07
-4.52198e-07
-4.01599e-07
-3.46787e-07
-2.92933e-07
-2.44231e-07
-2.0313e-07
-1.70205e-07
-1.44671e-07
-1.25108e-07
-1.10048e-07
-9.82676e-08
-8.88469e-08
-8.1114e-08
-7.46969e-08
-6.93731e-08
-6.49131e-08
-6.11347e-08
-5.78869e-08
-5.50603e-08
-5.25761e-08
-5.03879e-08
-4.8471e-08
-4.68191e-08
-4.5434e-08
-4.43164e-08
-4.34585e-08
-4.28433e-08
-4.24512e-08
-4.22661e-08
-4.22772e-08
-4.24882e-08
-4.28844e-08
-4.34529e-08
-4.4222e-08
-4.52246e-08
-4.65155e-08
-4.81679e-08
-5.0212e-08
-5.2674e-08
-5.5583e-08
-5.89723e-08
-6.28891e-08
-6.73978e-08
-7.25943e-08
-7.86091e-08
-8.56061e-08
-9.38025e-08
-1.03469e-07
-1.14953e-07
-1.28716e-07
-1.45384e-07
-1.65836e-07
-1.91296e-07
-2.2347e-07
-2.64679e-07
-3.18149e-07
-3.8851e-07
-4.82555e-07
-6.10695e-07
-7.89203e-07
-1.04394e-06
-1.41741e-06
-1.98117e-06
-2.8595e-06
-4.2757e-06
-6.64309e-06
0.000113619
0.000277856
0.000400364
0.000694631
0.00112028
0.00219359
0.00387968
0.00628494
0.00854162
0.00969511
0.0102021
0.0143898
0.0411298
0.474959
15.367
710.253
30699.4
1.30988e+06
5.09782e+07
4.39415e+10
4.05633e+11
419385
0.0120215
0.00487847
0.00518795
0.00571135
0.00612188
0.00655646
0.0068704
0.00724727
0.00769817
0.00817351
0.00855921
0.00913722
0.00960446
0.0100571
0.0105307
0.0108822
0.0111392
-7.94963e-20
-7.91225e-20
-8.03365e-20
-8.54916e-20
-9.76981e-20
-1.20743e-19
-1.59962e-19
-2.24342e-19
-3.3061e-19
-5.11409e-19
-8.32354e-19
-1.42902e-18
-2.58849e-18
-4.93232e-18
-9.8284e-18
-2.03227e-17
-4.3242e-17
-9.39206e-17
-2.06678e-16
-4.57777e-16
-1.01482e-15
-2.24155e-15
-4.91804e-15
-1.07028e-14
-2.31102e-14
-4.96082e-14
-1.06179e-13
-2.27367e-13
-4.88373e-13
-1.05352e-12
-2.28072e-12
-4.94179e-12
-1.06757e-11
-2.28865e-11
-4.84708e-11
-1.00996e-10
-2.06332e-10
-4.12168e-10
-8.03308e-10
-1.52479e-09
-2.81468e-09
-5.04682e-09
-8.78156e-09
-1.48168e-08
-2.42243e-08
-3.83441e-08
-5.87016e-08
-8.68281e-08
-1.24035e-07
-1.71322e-07
-2.29647e-07
-3.00413e-07
-3.84914e-07
-4.80434e-07
-5.7369e-07
-6.43149e-07
-6.80478e-07
-6.97779e-07
-7.00408e-07
-6.82719e-07
-6.44429e-07
-5.8882e-07
-5.21403e-07
-4.48871e-07
-3.77921e-07
-3.13908e-07
-2.59931e-07
-2.1669e-07
-1.83149e-07
-1.57451e-07
-1.37678e-07
-1.22228e-07
-1.09896e-07
-9.98064e-08
-9.14463e-08
-8.45164e-08
-7.87147e-08
-7.38006e-08
-6.95723e-08
-6.58852e-08
-6.26351e-08
-5.97632e-08
-5.72388e-08
-5.50546e-08
-5.32086e-08
-5.16934e-08
-5.04913e-08
-4.95776e-08
-4.8929e-08
-4.85292e-08
-4.83659e-08
-4.84398e-08
-4.87316e-08
-4.92273e-08
-4.99537e-08
-5.09538e-08
-5.22675e-08
-5.39506e-08
-5.60694e-08
-5.86342e-08
-6.16596e-08
-6.51759e-08
-6.92295e-08
-7.38811e-08
-7.92271e-08
-8.53975e-08
-9.25583e-08
-1.00932e-07
-1.10797e-07
-1.22515e-07
-1.36572e-07
-1.53628e-07
-1.74611e-07
-2.00814e-07
-2.3403e-07
-2.76689e-07
-3.32172e-07
-4.0534e-07
-5.0334e-07
-6.37175e-07
-8.24048e-07
-1.09138e-06
-1.48442e-06
-2.0796e-06
-3.01013e-06
-4.51616e-06
-7.04396e-06
0.000113102
0.000277016
0.000398603
0.000691092
0.00143222
0.00250917
0.00419643
0.00675545
0.00923799
0.0108144
0.0117875
0.0159592
0.0494307
0.599254
19.9366
927.61
40355.9
1.802e+06
7.17429e+07
6.78797e+10
2.73439e+11
91598.3
0.00851894
0.00446592
0.00485919
0.00527671
0.00564687
0.00599287
0.0063938
0.00674894
0.00712473
0.00752807
0.00801801
0.00847439
0.00900063
0.00946528
0.00990845
0.0103692
0.0107081
-1.60123e-19
-1.59263e-19
-1.61554e-19
-1.71365e-19
-1.94616e-19
-2.38424e-19
-3.1266e-19
-4.33584e-19
-6.3087e-19
-9.61445e-19
-1.53783e-18
-2.58849e-18
-4.58827e-18
-8.54607e-18
-1.66405e-17
-3.36358e-17
-7.003e-17
-1.49022e-16
-3.21759e-16
-7.00322e-16
-1.52787e-15
-3.32594e-15
-7.20069e-15
-1.54802e-14
-3.30511e-14
-7.0207e-14
-1.48803e-13
-3.15738e-13
-6.72486e-13
-1.43966e-12
-3.09584e-12
-6.67021e-12
-1.43445e-11
-3.06475e-11
-6.47581e-11
-1.34755e-10
-2.75178e-10
-5.49837e-10
-1.07249e-09
-2.03815e-09
-3.76765e-09
-6.76579e-09
-1.17905e-08
-1.99222e-08
-3.26128e-08
-5.16758e-08
-7.91684e-08
-1.1714e-07
-1.67321e-07
-2.30994e-07
-3.0937e-07
-4.0425e-07
-5.17232e-07
-6.44224e-07
-7.66524e-07
-8.55327e-07
-9.02171e-07
-9.24034e-07
-9.25848e-07
-9.00564e-07
-8.48077e-07
-7.72993e-07
-6.82806e-07
-5.86372e-07
-4.92379e-07
-4.07708e-07
-3.36327e-07
-2.79114e-07
-2.347e-07
-2.00656e-07
-1.74468e-07
-1.54022e-07
-1.37731e-07
-1.2444e-07
-1.13444e-07
-1.04334e-07
-9.6708e-08
-9.02498e-08
-8.46928e-08
-7.98473e-08
-7.55761e-08
-7.18008e-08
-6.84791e-08
-6.55968e-08
-6.3144e-08
-6.11028e-08
-5.94444e-08
-5.81338e-08
-5.71409e-08
-5.64458e-08
-5.60325e-08
-5.58984e-08
-5.60227e-08
-5.63902e-08
-5.70287e-08
-5.79808e-08
-5.92988e-08
-6.10188e-08
-6.31824e-08
-6.58388e-08
-6.89802e-08
-7.26208e-08
-7.68047e-08
-8.15904e-08
-8.70742e-08
-9.3385e-08
-1.00691e-07
-1.09222e-07
-1.19263e-07
-1.3119e-07
-1.45515e-07
-1.62933e-07
-1.84421e-07
-2.11339e-07
-2.45567e-07
-2.89647e-07
-3.47124e-07
-4.231e-07
-5.25105e-07
-6.64766e-07
-8.60289e-07
-1.14083e-06
-1.55464e-06
-2.18356e-06
-3.17074e-06
-4.77519e-06
-7.4802e-06
0.000112538
0.000276089
0.000396629
0.000820449
0.00124171
0.0026351
0.00436336
0.00742543
0.0103032
0.0117023
0.0128892
0.0183852
0.0599483
0.765963
26.2189
1226.57
53275.8
2.40026e+06
1.26639e+08
1.1286e+11
1.7173e+11
15478.8
0.00626966
0.00407096
0.00443726
0.0048681
0.00514611
0.00551813
0.00589233
0.00622406
0.00663606
0.00702144
0.0073813
0.00794059
0.00834521
0.00886942
0.00932604
0.00981648
0.0102083
-3.40689e-19
-3.38711e-19
-3.43359e-19
-3.63156e-19
-4.09831e-19
-4.97411e-19
-6.451e-19
-8.83825e-19
-1.26881e-18
-1.904e-18
-2.99119e-18
-4.93232e-18
-8.54607e-18
-1.55365e-17
-2.95071e-17
-5.81846e-17
-1.18274e-16
-2.46032e-16
-5.20075e-16
-1.11001e-15
-2.37856e-15
-5.09334e-15
-1.08625e-14
-2.30319e-14
-4.85505e-14
-1.01914e-13
-2.13624e-13
-4.48625e-13
-9.46459e-13
-2.0088e-12
-4.28707e-12
-9.17751e-12
-1.96332e-11
-4.17767e-11
-8.80151e-11
-1.82799e-10
-3.729e-10
-7.44858e-10
-1.45321e-09
-2.76334e-09
-5.11243e-09
-9.18909e-09
-1.60279e-08
-2.71039e-08
-4.43977e-08
-7.03777e-08
-1.07831e-07
-1.59509e-07
-2.27691e-07
-3.14011e-07
-4.19971e-07
-5.47847e-07
-6.9958e-07
-8.6914e-07
-1.03034e-06
-1.14454e-06
-1.20367e-06
-1.23152e-06
-1.23192e-06
-1.19593e-06
-1.12379e-06
-1.02204e-06
-9.00889e-07
-7.7207e-07
-6.46897e-07
-5.34272e-07
-4.39322e-07
-3.63159e-07
-3.03974e-07
-2.58569e-07
-2.23636e-07
-1.96379e-07
-1.74693e-07
-1.57041e-07
-1.42461e-07
-1.30382e-07
-1.20275e-07
-1.11717e-07
-1.04359e-07
-9.79511e-08
-9.23098e-08
-8.73282e-08
-8.2945e-08
-7.91343e-08
-7.58748e-08
-7.31371e-08
-7.08785e-08
-6.90494e-08
-6.76076e-08
-6.6525e-08
-6.57796e-08
-6.53645e-08
-6.52584e-08
-6.54438e-08
-6.59488e-08
-6.68165e-08
-6.80986e-08
-6.98365e-08
-7.20536e-08
-7.4769e-08
-7.79989e-08
-8.17448e-08
-8.60335e-08
-9.0922e-08
-9.65081e-08
-1.02921e-07
-1.10335e-07
-1.18983e-07
-1.29163e-07
-1.41266e-07
-1.55826e-07
-1.73578e-07
-1.95546e-07
-2.23157e-07
-2.58376e-07
-3.03862e-07
-3.63323e-07
-4.42106e-07
-5.48138e-07
-6.93687e-07
-8.98035e-07
-1.19221e-06
-1.62774e-06
-2.29232e-06
-3.33997e-06
-5.05036e-06
-7.9478e-06
0.000111937
0.000105171
0.000394458
0.000504593
0.0013699
0.00280653
0.0050174
0.00804026
0.0110955
0.0129205
0.0145746
0.0214139
0.0736509
1.0079
35.6527
1681.6
74483.1
3.38313e+06
2.13253e+08
2.03707e+11
9.37145e+10
2147.56
0.0048069
0.0036978
0.00404087
0.00443253
0.00478919
0.00502065
0.00542428
0.00573163
0.00600746
0.00648493
0.00682572
0.00725344
0.00776043
0.00827849
0.00873811
0.00918548
0.00966698
-7.58804e-19
-7.54174e-19
-7.64109e-19
-8.05936e-19
-9.03768e-19
-1.08647e-18
-1.39305e-18
-1.8849e-18
-2.66915e-18
-3.94359e-18
-6.08486e-18
-9.8284e-18
-1.66405e-17
-2.95071e-17
-5.46049e-17
-1.04901e-16
-2.07859e-16
-4.2194e-16
-8.71623e-16
-1.82093e-15
-3.8257e-15
-8.04513e-15
-1.6875e-14
-3.52379e-14
-7.32385e-14
-1.5173e-13
-3.14168e-13
-6.52272e-13
-1.36163e-12
-2.86239e-12
-6.05707e-12
-1.28723e-11
-2.73706e-11
-5.79579e-11
-1.21652e-10
-2.51981e-10
-5.13107e-10
-1.02383e-09
-1.99651e-09
-3.79611e-09
-7.02421e-09
-1.26286e-08
-2.20329e-08
-3.72647e-08
-6.1042e-08
-9.6741e-08
-1.48152e-07
-2.18977e-07
-3.12216e-07
-4.2993e-07
-5.73946e-07
-7.471e-07