/*--------------------------------*- C++ -*----------------------------------*\
  =========                 |
  \\      /  F ield         | OpenFOAM: The Open Source CFD Toolbox
   \\    /   O peration     | Website:  https://openfoam.org
    \\  /    A nd           | Version:  13
     \\/     M anipulation  |
\*---------------------------------------------------------------------------*/
FoamFile
{
    format      ascii;
    class       volScalarField;
    location    "0.002";
    object      rho;
}
// * * * * * * * * * * * * * * * * * * * * * * * * * * * * * * * * * * * * * //

dimensions      [1 -3 0 0 0 0 0];

internalField   nonuniform List<scalar> 
33334
(
0.33552
0.335546
0.335613
0.335674
0.335791
0.335957
0.336186
0.336482
0.336858
0.337333
0.337918
0.338611
0.339394
0.340247
0.341148
0.34208
0.343025
0.343957
0.344865
0.345736
0.346565
0.347351
0.348091
0.348804
0.349502
0.3502
0.350917
0.351679
0.352502
0.353407
0.354401
0.355501
0.356712
0.358041
0.359491
0.361062
0.362755
0.364568
0.366499
0.368544
0.370695
0.372943
0.375279
0.37769
0.380163
0.382687
0.38525
0.387841
0.390449
0.393061
0.395665
0.39825
0.400808
0.403337
0.405841
0.408322
0.410788
0.41324
0.41568
0.418104
0.420508
0.422888
0.425242
0.427569
0.429867
0.432131
0.43435
0.436511
0.438596
0.440589
0.442457
0.44414
0.44559
0.4468
0.447786
0.448648
0.44942
0.450066
0.450675
0.451161
0.451653
0.452039
0.452667
0.453085
0.453759
0.454345
0.454987
0.455802
0.4568
0.457934
0.459172
0.46052
0.462045
0.463799
0.465822
0.468071
0.470642
0.473573
0.476877
0.480561
0.484644
0.489106
0.49397
0.49921
0.50482
0.510801
0.517125
0.523769
0.530734
0.538018
0.545608
0.553484
0.561649
0.570094
0.578822
0.587823
0.597097
0.60664
0.616449
0.626533
0.636892
0.647537
0.658501
0.669794
0.681489
0.693678
0.706485
0.72014
0.734935
0.751297
0.769862
0.791413
0.816946
0.847523
0.884018
0.926487
0.973891
1.02703
1.08862
1.15781
1.23667
1.33338
1.45598
1.61115
1.81032
2.08874
2.53992
3.15968
3.41846
2.40074
1.93434
1.93262
1.94308
1.95472
1.96541
1.97577
1.98449
1.98926
1.99149
1.99227
1.9925
1.99221
1.99128
1.98981
1.98804
1.98622
0.335546
0.335557
0.335625
0.335651
0.335759
0.335927
0.33616
0.336457
0.336829
0.337298
0.337876
0.338562
0.339338
0.340186
0.341081
0.342007
0.342948
0.343877
0.344782
0.345652
0.346481
0.347268
0.348013
0.348726
0.34942
0.350113
0.350824
0.351578
0.352389
0.353281
0.354261
0.355346
0.356542
0.357855
0.359291
0.36085
0.36253
0.364332
0.366254
0.368289
0.370432
0.372673
0.375002
0.377405
0.37987
0.382387
0.384943
0.387527
0.390128
0.392733
0.395331
0.397912
0.400468
0.402998
0.405502
0.407984
0.410451
0.412904
0.415346
0.417773
0.420181
0.422567
0.424926
0.427257
0.42956
0.431829
0.434054
0.436223
0.438318
0.440322
0.442203
0.443915
0.445393
0.446591
0.447582
0.448495
0.449298
0.449978
0.450519
0.450962
0.45146
0.451878
0.452114
0.452346
0.452806
0.45347
0.454391
0.45547
0.456599
0.457738
0.458947
0.460283
0.461804
0.463509
0.465453
0.467667
0.470196
0.473076
0.476325
0.479969
0.483996
0.48843
0.493245
0.498447
0.504038
0.509981
0.51626
0.522879
0.52983
0.537082
0.544633
0.552485
0.560621
0.569059
0.577774
0.586752
0.596009
0.605524
0.615287
0.625337
0.635659
0.646252
0.657163
0.6684
0.680033
0.692183
0.704943
0.718537
0.733291
0.749583
0.768067
0.789532
0.814943
0.845406
0.881815
0.924195
0.971466
1.02455
1.08562
1.15453
1.2335
1.33078
1.45445
1.61162
1.8134
2.09452
2.55272
3.16958
3.41146
2.39452
1.93946
1.9386
1.94933
1.96099
1.97064
1.97785
1.98294
1.98723
1.99003
1.99127
1.9916
1.99141
1.99067
1.98946
1.98793
1.98619
0.335613
0.335625
0.335757
0.335785
0.33587
0.336012
0.336218
0.336495
0.336855
0.337317
0.337894
0.33858
0.339357
0.340205
0.341099
0.342025
0.342963
0.34389
0.344795
0.345665
0.346495
0.347283
0.348032
0.348749
0.349448
0.350146
0.350863
0.351622
0.352439
0.353335
0.354319
0.355407
0.356605
0.357921
0.359358
0.360917
0.362597
0.364399
0.36632
0.368355
0.370497
0.372738
0.375066
0.377469
0.379934
0.38245
0.385005
0.38759
0.390192
0.392799
0.3954
0.397985
0.400547
0.403079
0.405585
0.408067
0.410532
0.412984
0.415423
0.417847
0.420253
0.422635
0.424991
0.427319
0.429617
0.43188
0.434098
0.436259
0.438346
0.440335
0.442203
0.443923
0.445398
0.44656
0.447565
0.448471
0.44926
0.449953
0.450563
0.451125
0.451557
0.452137
0.45275
0.453414
0.454014
0.454611
0.455257
0.455994
0.45684
0.457807
0.458944
0.46031
0.461853
0.463583
0.465546
0.467782
0.470335
0.47324
0.476515
0.480182
0.484231
0.48868
0.493511
0.498731
0.50433
0.510281
0.516577
0.523212
0.530171
0.537436
0.545006
0.552874
0.561028
0.569473
0.578191
0.587177
0.59644
0.605964
0.615754
0.625827
0.636174
0.646805
0.657748
0.669027
0.680708
0.692887
0.705679
0.719305
0.734076
0.750406
0.768921
0.790413
0.815866
0.846364
0.882786
0.925135
0.972393
1.02534
1.08657
1.15585
1.23507
1.33293
1.45724
1.61525
1.81812
2.10116
2.56583
3.18194
3.41206
2.37463
1.93455
1.93441
1.94503
1.95628
1.96565
1.97328
1.97929
1.98416
1.98769
1.98968
1.99035
1.99031
1.98978
1.98882
1.98754
1.98602
0.335674
0.335651
0.335785
0.335834
0.335939
0.336093
0.336307
0.336591
0.336953
0.337413
0.337984
0.338664
0.339435
0.340277
0.341166
0.342088
0.343024
0.343952
0.344862
0.345741
0.346583
0.347383
0.348144
0.348872
0.349582
0.350291
0.351018
0.351786
0.352611
0.353513
0.354502
0.355592
0.356792
0.358107
0.359541
0.361096
0.362771
0.364568
0.366484
0.368515
0.370654
0.372891
0.375217
0.377617
0.380079
0.382593
0.385146
0.387729
0.39033
0.392938
0.39554
0.398126
0.400686
0.403218
0.405722
0.408203
0.410666
0.413116
0.415552
0.417975
0.42038
0.422763
0.425119
0.427447
0.429744
0.432005
0.434221
0.436378
0.438458
0.440437
0.442299
0.444025
0.445503
0.446649
0.447682
0.448596
0.449384
0.450066
0.45065
0.451226
0.451754
0.452282
0.452751
0.453324
0.453959
0.454642
0.455373
0.456162
0.457026
0.457995
0.459136
0.460528
0.462086
0.463819
0.465779
0.468013
0.470568
0.473474
0.476753
0.48042
0.48447
0.488917
0.493748
0.498968
0.504562
0.510511
0.516806
0.52344
0.530397
0.537662
0.545233
0.553102
0.56126
0.569706
0.578424
0.587414
0.596676
0.606197
0.615988
0.626058
0.6364
0.64703
0.657968
0.669246
0.68093
0.693103
0.705892
0.719518
0.734287
0.75063
0.76915
0.79064
0.816102
0.846615
0.883051
0.925394
0.972653
1.02565
1.08719
1.15684
1.23611
1.33376
1.45808
1.61652
1.82005
2.10382
2.57392
3.18749
3.40363
2.35008
1.93205
1.93257
1.94293
1.95323
1.96152
1.96853
1.97464
1.9799
1.9841
1.98699
1.98841
1.98876
1.98853
1.98789
1.98691
1.98566
0.335791
0.335759
0.33587
0.335939
0.336051
0.336205
0.336415
0.336692
0.33705
0.337507
0.338076
0.338752
0.339518
0.340354
0.341237
0.342156
0.343089
0.344018
0.344931
0.345813
0.34666
0.347469
0.348241
0.34898
0.349702
0.350423
0.351161
0.351939
0.352774
0.353682
0.354677
0.355772
0.356973
0.358288
0.359721
0.361272
0.362944
0.364735
0.366646
0.368673
0.370808
0.373042
0.375363
0.377759
0.380217
0.382725
0.385274
0.387852
0.390449
0.393052
0.39565
0.398231
0.400787
0.403315
0.405816
0.408293
0.410751
0.413196
0.415628
0.418046
0.420449
0.42283
0.425186
0.427514
0.429809
0.432067
0.434278
0.436428
0.438498
0.440468
0.442322
0.444039
0.445526
0.446682
0.447706
0.448614
0.449401
0.450091
0.450698
0.451285
0.451809
0.452325
0.452828
0.453412
0.454056
0.454757
0.455483
0.456248
0.457088
0.458061
0.459225
0.460613
0.462209
0.463964
0.46593
0.468171
0.470734
0.473647
0.47693
0.480597
0.484644
0.489087
0.493916
0.499133
0.504722
0.510668
0.516964
0.523598
0.530556
0.537825
0.545401
0.553274
0.561436
0.569884
0.578604
0.587598
0.596863
0.60639
0.616191
0.626265
0.636612
0.647249
0.65819
0.669473
0.681161
0.693332
0.706126
0.719758
0.734538
0.750907
0.769452
0.790968
0.816463
0.847022
0.883513
0.925905
0.973183
1.02627
1.08798
1.15762
1.23695
1.33478
1.45924
1.61762
1.82144
2.1061
2.58331
3.1908
3.38855
2.32394
1.9285
1.92948
1.93925
1.94863
1.95628
1.96305
1.96921
1.97472
1.97943
1.98312
1.98556
1.98669
1.9869
1.98662
1.986
1.98507
0.335957
0.335927
0.336012
0.336093
0.336205
0.33636
0.336567
0.33684
0.337193
0.337647
0.338212
0.338885
0.339646
0.340478
0.341358
0.342276
0.343209
0.344141
0.345059
0.345948
0.346804
0.347624
0.348408
0.349161
0.349895
0.350628
0.351378
0.352166
0.353008
0.353922
0.354921
0.356017
0.357218
0.35853
0.359958
0.361503
0.363168
0.364952
0.366856
0.368877
0.371006
0.373235
0.37555
0.37794
0.380391
0.382893
0.385434
0.388005
0.390594
0.39319
0.395779
0.398352
0.400901
0.403423
0.405918
0.408389
0.410841
0.413278
0.415704
0.418116
0.420515
0.422894
0.425251
0.427579
0.429873
0.432129
0.434335
0.436479
0.438541
0.440504
0.442348
0.444052
0.445543
0.44672
0.447726
0.44862
0.449403
0.450097
0.450723
0.451322
0.451877
0.452422
0.452974
0.453571
0.454223
0.454905
0.455602
0.456346
0.457188
0.458185
0.459369
0.460757
0.462361
0.464117
0.466082
0.468324
0.47089
0.473805
0.477089
0.480753
0.484797
0.489237
0.494064
0.499279
0.504865
0.510812
0.517111
0.523747
0.530707
0.537981
0.545563
0.553441
0.561608
0.570057
0.578778
0.587776
0.597043
0.606578
0.61639
0.626472
0.636831
0.647483
0.658436
0.669732
0.681429
0.693607
0.706412
0.720056
0.73485
0.751244
0.769823
0.791386
0.816934
0.847566
0.884147
0.926625
0.973945
1.02713
1.08894
1.15851
1.23807
1.33632
1.46121
1.61975
1.82421
2.11136
2.59472
3.19778
3.36911
2.29247
1.92406
1.92541
1.93442
1.94299
1.95023
1.95687
1.96307
1.96878
1.97387
1.9782
1.98159
1.98383
1.98484
1.98503
1.98478
1.98419
0.336186
0.33616
0.336218
0.336307
0.336415
0.336567
0.33677
0.337037
0.337387
0.337839
0.338402
0.339073
0.339832
0.34066
0.341539
0.342456
0.343386
0.344318
0.345237
0.346133
0.346999
0.34783
0.348628
0.349395
0.350143
0.35089
0.351653
0.352452
0.353303
0.354223
0.355228
0.356325
0.357526
0.358835
0.360258
0.361796
0.363454
0.36523
0.367127
0.369141
0.371265
0.373487
0.375797
0.378179
0.380623
0.383116
0.385648
0.388209
0.390787
0.393371
0.395948
0.39851
0.401049
0.403562
0.406049
0.408512
0.410957
0.413386
0.415804
0.41821
0.420603
0.42298
0.425335
0.427663
0.429958
0.432212
0.434414
0.436551
0.438607
0.440563
0.442398
0.44409
0.445582
0.446774
0.44777
0.448655
0.449434
0.450128
0.450761
0.451363
0.451938
0.452509
0.453094
0.453701
0.454344
0.455008
0.4557
0.456459
0.45733
0.458357
0.459552
0.460938
0.462539
0.464292
0.466257
0.468503
0.471072
0.473987
0.477271
0.480932
0.484976
0.489414
0.494242
0.499458
0.505045
0.510997
0.517304
0.523947
0.530914
0.538197
0.545789
0.553674
0.56185
0.570305
0.579033
0.588038
0.597313
0.606863
0.616691
0.626789
0.637168
0.647838
0.65881
0.670122
0.681829
0.694018
0.706835
0.72049
0.735297
0.751709
0.77032
0.791932
0.817533
0.848237
0.884905
0.927477
0.974869
1.02821
1.09017
1.15973
1.23951
1.3383
1.46396
1.62324
1.82915
2.12106
2.61183
3.21343
3.34818
2.25405
1.91839
1.92019
1.92851
1.93648
1.94347
1.95007
1.95635
1.96225
1.96767
1.97251
1.97664
1.97989
1.98205
1.98303
1.98323
1.98301
0.336482
0.336457
0.336495
0.336591
0.336692
0.33684
0.337037
0.3373
0.337648
0.3381
0.338665
0.339335
0.340092
0.340919
0.341796
0.342708
0.343635
0.344565
0.345486
0.346388
0.347265
0.34811
0.348923
0.349706
0.350471
0.351233
0.352009
0.35282
0.353681
0.354609
0.355618
0.356717
0.357918
0.359224
0.36064
0.362172
0.363821
0.365589
0.367477
0.369482
0.371597
0.373812
0.376112
0.378485
0.380919
0.383401
0.385921
0.388469
0.391034
0.393604
0.396169
0.398718
0.401246
0.403748
0.406226
0.408681
0.411117
0.413537
0.415945
0.418341
0.420727
0.423098
0.425451
0.427778
0.430072
0.432325
0.434524
0.436656
0.438705
0.440653
0.44248
0.444163
0.445653
0.446855
0.447847
0.448729
0.449511
0.450205
0.450839
0.451436
0.452013
0.452591
0.453187
0.4538
0.454441
0.455111
0.455829
0.456626
0.457536
0.458584
0.459781
0.461163
0.462759
0.464513
0.466482
0.468731
0.471299
0.474212
0.477492
0.481151
0.485197
0.489638
0.494471
0.499692
0.505287
0.511251
0.517569
0.524225
0.531205
0.538501
0.546107
0.554006
0.562196
0.570662
0.579403
0.58842
0.597707
0.607273
0.617116
0.627227
0.637623
0.648309
0.659297
0.670625
0.682342
0.694548
0.707383
0.721051
0.735873
0.752299
0.770939
0.792606
0.818267
0.849046
0.885806
0.928483
0.975978
1.0295
1.09173
1.16137
1.24141
1.34079
1.4674
1.6281
1.83615
2.1334
2.63408
3.23078
3.3185
2.21128
1.91178
1.91402
1.92176
1.92926
1.93611
1.94273
1.94914
1.95525
1.96097
1.96623
1.97094
1.97499
1.9782
1.98033
1.9813
1.98152
0.336858
0.336829
0.336855
0.336953
0.33705
0.337193
0.337387
0.337648
0.337996
0.338453
0.339021
0.339692
0.340446
0.341267
0.342138
0.343043
0.343964
0.344893
0.345816
0.346726
0.347613
0.348473
0.349302
0.350103
0.350885
0.351664
0.352455
0.353279
0.35415
0.355085
0.3561
0.357201
0.358402
0.359705
0.361115
0.362639
0.364278
0.366036
0.367914
0.369909
0.372014
0.374218
0.376507
0.378869
0.38129
0.38376
0.386267
0.388801
0.391351
0.393906
0.396456
0.39899
0.401505
0.403995
0.406462
0.408906
0.411332
0.413741
0.416137
0.418522
0.420896
0.423259
0.425606
0.427931
0.430226
0.432478
0.434676
0.436805
0.438849
0.44079
0.44261
0.444286
0.445771
0.446979
0.447968
0.448852
0.44964
0.450342
0.450979
0.451572
0.452145
0.45272
0.453313
0.453928
0.454576
0.455267
0.45602
0.456856
0.457794
0.45885
0.460043
0.461425
0.463023
0.464784
0.466761
0.469016
0.471585
0.474497
0.477778
0.48144
0.485493
0.489942
0.494787
0.50002
0.505629
0.511611
0.517946
0.524619
0.531618
0.538933
0.546557
0.554476
0.562682
0.571164
0.579922
0.588953
0.598253
0.607834
0.617688
0.627812
0.638225
0.648924
0.659929
0.671274
0.683003
0.695224
0.708076
0.721758
0.736592
0.753029
0.771693
0.793413
0.819138
0.84999
0.886837
0.929609
0.977219
1.03096
1.09354
1.16342
1.24387
1.34394
1.47158
1.63402
1.84522
2.1475
2.66231
3.24474
3.27634
2.16678
1.90444
1.90705
1.91432
1.92149
1.92826
1.93494
1.94151
1.94784
1.95386
1.95948
1.96466
1.96933
1.97337
1.97657
1.97868
1.97964
0.337333
0.337298
0.337317
0.337413
0.337507
0.337647
0.337839
0.3381
0.338453
0.338915
0.339484
0.34015
0.340896
0.341706
0.342567
0.343463
0.344379
0.345308
0.346235
0.347154
0.348054
0.348931
0.349779
0.350599
0.3514
0.352197
0.353004
0.353842
0.354725
0.355668
0.356689
0.357793
0.358994
0.360292
0.361697
0.363213
0.364843
0.366591
0.368457
0.37044
0.372532
0.374722
0.376998
0.379345
0.381752
0.384206
0.386697
0.389215
0.391748
0.394286
0.396819
0.399337
0.401837
0.404314
0.406768
0.409202
0.411616
0.414013
0.416395
0.418766
0.421126
0.423478
0.425818
0.42814
0.430434
0.432688
0.434887
0.437013
0.439053
0.44099
0.442804
0.444472
0.445953
0.447164
0.448151
0.449034
0.449828
0.450541
0.451185
0.451781
0.452352
0.452924
0.453513
0.454132
0.454793
0.455508
0.45629
0.457149
0.458097
0.459154
0.460348
0.46174
0.463345
0.465119
0.467111
0.469374
0.471947
0.474865
0.478152
0.481823
0.485889
0.490354
0.495217
0.500469
0.506099
0.512105
0.518462
0.525158
0.532181
0.539519
0.547165
0.555105
0.563332
0.571833
0.58061
0.589658
0.598972
0.608568
0.61843
0.628565
0.638991
0.649698
0.660712
0.672066
0.683801
0.696031
0.708893
0.722582
0.737428
0.753881
0.772566
0.794338
0.82014
0.851079
0.888031
0.930901
0.978637
1.03261
1.09557
1.16571
1.24676
1.34766
1.47645
1.64047
1.85494
2.16393
2.69417
3.26162
3.22314
2.12028
1.8965
1.89945
1.90636
1.91329
1.92004
1.92681
1.93353
1.94009
1.94638
1.95233
1.95792
1.96308
1.96777
1.97182
1.975
1.97709
0.337918
0.337876
0.337894
0.337984
0.338076
0.338212
0.338402
0.338665
0.339021
0.339484
0.340049
0.340705
0.341436
0.342233
0.343083
0.34397
0.344882
0.345812
0.346747
0.347678
0.348595
0.349491
0.350359
0.351201
0.352023
0.352839
0.353663
0.354516
0.35541
0.356363
0.357389
0.358495
0.359697
0.360993
0.362393
0.363901
0.365522
0.367259
0.369114
0.371083
0.37316
0.375335
0.377594
0.379925
0.382314
0.384751
0.387224
0.389723
0.392238
0.394757
0.397272
0.399774
0.402257
0.40472
0.407162
0.409583
0.411985
0.414368
0.416736
0.41909
0.421435
0.423772
0.426103
0.42842
0.430715
0.43297
0.43517
0.437296
0.439334
0.441265
0.443074
0.444736
0.446212
0.447426
0.44841
0.449292
0.450089
0.450811
0.451465
0.452069
0.452646
0.453221
0.453813
0.454439
0.455112
0.455843
0.456638
0.457503
0.458452
0.45951
0.460713
0.462121
0.463738
0.46553
0.467539
0.469816
0.472403
0.475336
0.478639
0.482329
0.486417
0.490904
0.495794
0.501072
0.506732
0.512766
0.519149
0.525871
0.53292
0.540283
0.547952
0.555916
0.564163
0.572685
0.581484
0.59055
0.599877
0.609484
0.619351
0.629491
0.639922
0.650629
0.661644
0.673001
0.684736
0.696967
0.70983
0.723524
0.738385
0.754861
0.773573
0.795398
0.821283
0.852333
0.889421
0.93239
0.980246
1.03443
1.09779
1.16816
1.24984
1.35166
1.48171
1.64743
1.86467
2.18275
2.72503
3.28269
3.16103
2.07164
1.88803
1.89135
1.89799
1.90477
1.91153
1.9184
1.92528
1.93203
1.93857
1.94483
1.95076
1.95635
1.96155
1.96627
1.97033
1.97349
0.338611
0.338562
0.33858
0.338664
0.338752
0.338885
0.339073
0.339335
0.339692
0.34015
0.340705
0.341346
0.342062
0.342846
0.343684
0.344563
0.345475
0.346411
0.347356
0.348304
0.349242
0.35016
0.351052
0.351918
0.352763
0.3536
0.354444
0.355312
0.356219
0.357181
0.358214
0.359323
0.360525
0.361818
0.363214
0.364715
0.366327
0.368053
0.369894
0.371848
0.373908
0.376065
0.378305
0.380616
0.382986
0.385403
0.387856
0.390335
0.392831
0.395331
0.397828
0.400312
0.40278
0.405228
0.407656
0.410064
0.412453
0.414822
0.417174
0.41951
0.421837
0.424159
0.426477
0.428788
0.43108
0.433337
0.435539
0.437666
0.439701
0.441629
0.443434
0.44509
0.446562
0.447779
0.448763
0.449641
0.450437
0.451165
0.451827
0.452443
0.453029
0.453613
0.454213
0.454847
0.455528
0.456264
0.457061
0.457925
0.458875
0.459942
0.46116
0.462586
0.464219
0.466032
0.468065
0.470366
0.472979
0.475942
0.479274
0.482993
0.487111
0.491629
0.496551
0.501861
0.507554
0.513618
0.520029
0.526777
0.533851
0.541237
0.548929
0.556914
0.565182
0.573723
0.582543
0.591624
0.600964
0.610577
0.620445
0.630586
0.641015
0.651716
0.662725
0.674078
0.68581
0.698035
0.710891
0.724587
0.739464
0.755972
0.774719
0.796599
0.822575
0.85376
0.891016
0.934101
0.982079
1.03649
1.10028
1.17089
1.25321
1.35609
1.48761
1.65543
1.8765
2.20333
2.76424
3.29742
3.08433
2.02584
1.87926
1.88286
1.88934
1.89602
1.90281
1.90977
1.91678
1.92372
1.93048
1.937
1.94324
1.9492
1.95484
1.96009
1.96483
1.96889
0.339394
0.339338
0.339357
0.339435
0.339518
0.339646
0.339832
0.340092
0.340446
0.340896
0.341436
0.342062
0.342764
0.343535
0.344363
0.345239
0.346154
0.347098
0.34806
0.349028
0.349991
0.350936
0.351856
0.352748
0.353618
0.354479
0.355343
0.356229
0.357149
0.358121
0.359161
0.360274
0.361477
0.362769
0.364161
0.365656
0.367259
0.368974
0.370801
0.372738
0.37478
0.376916
0.379136
0.381426
0.383774
0.38617
0.388603
0.391062
0.393537
0.396019
0.398498
0.400965
0.403417
0.40585
0.408264
0.410658
0.413032
0.415386
0.417721
0.420039
0.422348
0.424651
0.426955
0.429256
0.431543
0.433799
0.436004
0.438133
0.44017
0.442097
0.443899
0.445551
0.44702
0.448241
0.449225
0.450098
0.450891
0.45162
0.452288
0.452912
0.453508
0.454101
0.454709
0.455349
0.456034
0.45677
0.457565
0.458432
0.45939
0.460473
0.461713
0.463159
0.464814
0.466655
0.468723
0.471062
0.473716
0.476722
0.480095
0.483854
0.488009
0.492563
0.49752
0.502865
0.508593
0.514687
0.521124
0.527897
0.534993
0.542399
0.550109
0.55811
0.566394
0.574952
0.583787
0.59288
0.602229
0.611843
0.621709
0.631847
0.642268
0.652959
0.663959
0.675302
0.687027
0.699242
0.712088
0.725784
0.740676
0.757219
0.776013
0.79796
0.824032
0.855366
0.892801
0.936026
0.98412
1.03877
1.10297
1.17379
1.25675
1.36068
1.49371
1.66372
1.88994
2.22743
2.80581
3.31326
2.99295
1.98233
1.87024
1.8741
1.88048
1.88711
1.89393
1.90096
1.90809
1.91517
1.92211
1.92886
1.93538
1.94166
1.94768
1.95338
1.95868
1.96345
0.340247
0.340186
0.340205
0.340277
0.340354
0.340478
0.34066
0.340919
0.341267
0.341706
0.342233
0.342846
0.343535
0.344297
0.345119
0.345996
0.346919
0.347877
0.34886
0.349855
0.350848
0.351824
0.352774
0.353696
0.354594
0.35548
0.356365
0.357269
0.358204
0.359188
0.360235
0.361353
0.362558
0.363849
0.365238
0.366726
0.368321
0.370022
0.371834
0.373753
0.375775
0.37789
0.380088
0.382356
0.384683
0.387058
0.38947
0.39191
0.394366
0.39683
0.399291
0.401743
0.404178
0.406596
0.408995
0.411374
0.413733
0.416071
0.418389
0.420689
0.422978
0.425262
0.427548
0.429835
0.432115
0.434368
0.436575
0.438709
0.44075
0.44268
0.444482
0.446134
0.447602
0.448826
0.449811
0.450679
0.451467
0.452194
0.452863
0.453492
0.454094
0.454694
0.455307
0.455951
0.456637
0.457374
0.458174
0.45905
0.460024
0.461131
0.462398
0.463871
0.465558
0.467441
0.469558
0.471948
0.474658
0.477718
0.481143
0.484949
0.489147
0.49374
0.498734
0.504114
0.509873
0.515993
0.522454
0.529247
0.536359
0.54378
0.5515
0.559512
0.567805
0.576371
0.585212
0.594311
0.603663
0.613276
0.623136
0.633267
0.643675
0.654355
0.665343
0.676673
0.688387
0.70059
0.713428
0.727125
0.74203
0.758607
0.777459
0.799487
0.825669
0.857151
0.89476
0.938154
0.986374
1.0413
1.10598
1.17708
1.26083
1.36597
1.5007
1.67307
1.90391
2.25454
2.84909
3.32419
2.89048
1.9422
1.8611
1.86516
1.87149
1.87808
1.88493
1.89202
1.89923
1.90642
1.91352
1.92046
1.92722
1.93378
1.94013
1.94622
1.95199
1.95733
0.341148
0.341081
0.341099
0.341166
0.341237
0.341358
0.341539
0.341796
0.342138
0.342567
0.343083
0.343684
0.344363
0.345119
0.345941
0.346824
0.34776
0.348739
0.34975
0.350777
0.351803
0.352814
0.353798
0.354752
0.35568
0.356592
0.357501
0.358424
0.359375
0.360372
0.361428
0.362552
0.363761
0.365051
0.366437
0.367919
0.369503
0.371192
0.372988
0.374888
0.37689
0.378984
0.38116
0.383407
0.385713
0.388067
0.39046
0.39288
0.395319
0.397765
0.40021
0.402645
0.405064
0.407466
0.409849
0.412212
0.414556
0.416879
0.419181
0.421464
0.423734
0.425998
0.428265
0.430535
0.432803
0.435053
0.437262
0.439404
0.441454
0.44339
0.445198
0.446852
0.44832
0.449548
0.450537
0.4514
0.45218
0.452902
0.453569
0.454198
0.454803
0.455407
0.456023
0.456672
0.457362
0.458105
0.458917
0.459811
0.460811
0.461949
0.463254
0.464766
0.466501
0.468442
0.470621
0.473075
0.47585
0.478975
0.482459
0.486319
0.490564
0.495198
0.500228
0.505639
0.511426
0.517568
0.524047
0.530854
0.537976
0.545403
0.553127
0.561139
0.569432
0.577997
0.586833
0.595927
0.605275
0.614879
0.62473
0.634848
0.645238
0.655904
0.666878
0.678191
0.689892
0.702082
0.714912
0.728611
0.743527
0.760133
0.779046
0.801166
0.827468
0.8591
0.896884
0.940453
0.988818
1.04408
1.10921
1.18062
1.26517
1.37162
1.50828
1.68372
1.92064
2.28433
2.89908
3.32825
2.77284
1.90768
1.85187
1.8561
1.8624
1.86897
1.87583
1.88296
1.89022
1.8975
1.90471
1.91181
1.91877
1.92558
1.93222
1.93866
1.94483
1.95066
0.34208
0.342007
0.342025
0.342088
0.342156
0.342276
0.342456
0.342708
0.343043
0.343463
0.34397
0.344563
0.345239
0.345996
0.346824
0.347721
0.348678
0.349684
0.350727
0.35179
0.352855
0.353904
0.354925
0.355913
0.356872
0.357813
0.358745
0.35969
0.360658
0.361669
0.362737
0.363869
0.365082
0.366372
0.367756
0.36923
0.370805
0.37248
0.374259
0.376142
0.378124
0.380197
0.382353
0.38458
0.386866
0.389202
0.391576
0.393979
0.3964
0.39883
0.401259
0.403678
0.406081
0.408467
0.410834
0.413181
0.41551
0.417818
0.420105
0.422372
0.424624
0.426869
0.429114
0.431365
0.433618
0.43586
0.438071
0.44022
0.442282
0.444231
0.446049
0.44771
0.449184
0.450416
0.45141
0.45227
0.453045
0.45376
0.454421
0.455048
0.455654
0.45626
0.456882
0.457538
0.458238
0.458997
0.45983
0.460752
0.461789
0.462972
0.464329
0.465897
0.467698
0.469711
0.471966
0.474495
0.477344
0.480539
0.484089
0.488008
0.492304
0.496981
0.502044
0.507483
0.513291
0.519447
0.525937
0.532749
0.539872
0.547298
0.555014
0.563017
0.571297
0.579848
0.588666
0.597744
0.607077
0.616663
0.626498
0.636597
0.646962
0.65761
0.668564
0.679857
0.69154
0.703712
0.71653
0.73023
0.745157
0.761786
0.780762
0.802982
0.829419
0.861216
0.899177
0.942931
0.991489
1.04711
1.11273
1.18452
1.27016
1.3782
1.51684
1.6952
1.93809
2.32022
2.94408
3.32976
2.64667
1.8765
1.84261
1.84699
1.85324
1.85978
1.86665
1.8738
1.8811
1.88843
1.89573
1.90295
1.91007
1.91708
1.92398
1.93072
1.93725
1.94349
0.343025
0.342948
0.342963
0.343024
0.343089
0.343209
0.343386
0.343635
0.343964
0.344379
0.344882
0.345475
0.346154
0.346919
0.34776
0.348678
0.349661
0.3507
0.35178
0.352884
0.35399
0.35508
0.356139
0.357163
0.358154
0.359124
0.360082
0.361048
0.362036
0.363064
0.364144
0.365286
0.366504
0.367797
0.369178
0.370646
0.37221
0.373872
0.375637
0.377502
0.379466
0.381521
0.383659
0.385867
0.388136
0.390455
0.392812
0.395199
0.397604
0.400018
0.402431
0.404835
0.407223
0.409593
0.411944
0.414276
0.41659
0.418884
0.421158
0.423411
0.425648
0.427874
0.430099
0.432328
0.434564
0.436796
0.439006
0.441165
0.443244
0.445211
0.447046
0.448721
0.450205
0.451444
0.452443
0.453302
0.45407
0.454778
0.455432
0.456055
0.456662
0.457274
0.457906
0.458577
0.459298
0.460084
0.460952
0.461919
0.463009
0.464255
0.465683
0.467324
0.469208
0.471309
0.473652
0.476266
0.479198
0.482469
0.486091
0.490072
0.494421
0.49914
0.504234
0.509695
0.515517
0.521679
0.528171
0.534979
0.542093
0.549506
0.557203
0.565183
0.573437
0.581959
0.590745
0.599793
0.609095
0.61865
0.628458
0.638527
0.64886
0.65948
0.670405
0.68167
0.693332
0.705479
0.71828
0.731979
0.746915
0.763571
0.782606
0.804924
0.8315
0.863474
0.901631
0.945559
0.994332
1.05039
1.1165
1.18877
1.27541
1.38508
1.52592
1.70782
1.95888
2.35917
2.99283
3.32179
2.51021
1.85221
1.83331
1.83785
1.84404
1.85054
1.8574
1.86456
1.87187
1.87923
1.88659
1.8939
1.90114
1.90833
1.91543
1.92243
1.92928
1.93589
0.343957
0.343877
0.34389
0.343952
0.344018
0.344141
0.344318
0.344565
0.344893
0.345308
0.345812
0.346411
0.347098
0.347877
0.348739
0.349684
0.3507
0.351777
0.352899
0.354046
0.355196
0.356328
0.357427
0.358488
0.359512
0.360511
0.361496
0.362487
0.363496
0.364542
0.365639
0.366793
0.368019
0.369314
0.370694
0.372156
0.373712
0.375363
0.377114
0.378965
0.380914
0.382953
0.385074
0.387267
0.38952
0.391823
0.394165
0.396537
0.398927
0.401327
0.403725
0.406115
0.408488
0.410844
0.41318
0.415498
0.417798
0.42008
0.422342
0.424584
0.426808
0.429017
0.431223
0.43343
0.435647
0.437865
0.440071
0.442237
0.444334
0.446323
0.448181
0.449875
0.451374
0.452623
0.453634
0.454494
0.455259
0.455963
0.456614
0.457237
0.45785
0.458473
0.459125
0.459822
0.460577
0.461408
0.462329
0.463359
0.464524
0.465854
0.467374
0.469107
0.471097
0.4733
0.475744
0.478456
0.48148
0.484835
0.48853
0.492575
0.496977
0.501736
0.506857
0.512335
0.518162
0.524319
0.530799
0.537589
0.544678
0.552061
0.559722
0.567664
0.575874
0.58435
0.593089
0.602092
0.611349
0.620857
0.630623
0.64065
0.650939
0.661521
0.672406
0.683637
0.695272
0.707391
0.720171
0.733859
0.748804
0.765489
0.784581
0.806987
0.833703
0.865891
0.904241
0.948344
0.997417
1.05396
1.12057
1.19333
1.28106
1.39262
1.53592
1.72178
1.98141
2.4057
3.02919
3.31609
2.36138
1.83336
1.82403
1.8287
1.83482
1.84125
1.8481
1.85524
1.86255
1.86992
1.87731
1.88468
1.89202
1.89934
1.90662
1.91384
1.92095
1.92788
0.344865
0.344782
0.344795
0.344862
0.344931
0.345059
0.345237
0.345486
0.345816
0.346235
0.346747
0.347356
0.34806
0.34886
0.34975
0.350727
0.35178
0.352899
0.354065
0.355257
0.356451
0.357626
0.358765
0.359863
0.360921
0.361951
0.362965
0.363982
0.365016
0.366084
0.367199
0.368368
0.369604
0.370904
0.372284
0.373742
0.375292
0.376934
0.378675
0.380515
0.382451
0.384478
0.386586
0.388765
0.391004
0.393293
0.395621
0.397979
0.400356
0.402742
0.405127
0.407504
0.409866
0.412209
0.414533
0.416839
0.419128
0.4214
0.423653
0.425886
0.4281
0.430297
0.432486
0.434674
0.436871
0.439073
0.441271
0.443441
0.445553
0.447566
0.449451
0.451174
0.452696
0.453963
0.454989
0.455858
0.456627
0.457331
0.457984
0.458612
0.459237
0.45988
0.460561
0.461298
0.462105
0.463
0.463998
0.465119
0.466387
0.467831
0.469469
0.471318
0.473439
0.475764
0.478325
0.481149
0.484275
0.487716
0.491486
0.495588
0.500037
0.504827
0.509964
0.515445
0.52126
0.527395
0.533844
0.540595
0.547638
0.554972
0.562578
0.570462
0.578612
0.587028
0.595705
0.604647
0.61384
0.623286
0.632994
0.642962
0.653199
0.663732
0.674568
0.685762
0.697364
0.709454
0.72221
0.735884
0.750836
0.767551
0.786704
0.809199
0.836068
0.868464
0.907017
0.951291
1.00072
1.05777
1.12483
1.19822
1.28738
1.40081
1.54675
1.73746
2.00687
2.4594
3.06895
3.27769
2.22695
1.81827
1.81476
1.81957
1.82557
1.83194
1.83874
1.84586
1.85314
1.86051
1.86791
1.87531
1.88272
1.89015
1.89757
1.90497
1.91231
1.91951
0.345736
0.345652
0.345665
0.345741
0.345813
0.345948
0.346133
0.346388
0.346726
0.347154
0.347678
0.348304
0.349028
0.349855
0.350777
0.35179
0.352884
0.354046
0.355257
0.356494
0.357732
0.35895
0.360129
0.361265
0.362359
0.363422
0.364467
0.365514
0.366576
0.36767
0.368806
0.369992
0.37124
0.372548
0.37393
0.375388
0.376934
0.37857
0.380305
0.382138
0.384066
0.386084
0.388182
0.390351
0.392579
0.394856
0.397172
0.399517
0.401883
0.404257
0.406633
0.409
0.411352
0.413686
0.416001
0.418298
0.420577
0.42284
0.425085
0.427311
0.429516
0.431704
0.43388
0.436052
0.438229
0.440414
0.4426
0.444769
0.446892
0.448928
0.450843
0.452599
0.454152
0.455446
0.456499
0.457385
0.458166
0.458881
0.459546
0.46019
0.460838
0.461514
0.462241
0.463037
0.46392
0.464908
0.466015
0.467263
0.468672
0.470265
0.472051
0.474047
0.476326
0.478796
0.481486
0.48443
0.487659
0.491178
0.49501
0.499152
0.503627
0.508424
0.513556
0.519018
0.524799
0.53089
0.537286
0.543975
0.550949
0.55821
0.565737
0.573545
0.581616
0.589955
0.598555
0.607421
0.616538
0.625909
0.635547
0.645447
0.655626
0.666105
0.676891
0.688042
0.699608
0.71167
0.724405
0.738065
0.753021
0.769772
0.788993
0.811583
0.838607
0.871208
0.909956
0.954427
1.00424
1.06189
1.12937
1.20363
1.29423
1.40966
1.5584
1.75425
2.03588
2.51885
3.1144
3.20529
2.10769
1.80567
1.80555
1.81045
1.81631
1.8226
1.82936
1.83643
1.84367
1.85101
1.8584
1.86582
1.87328
1.88077
1.8883
1.89585
1.90337
1.91081
0.346565
0.346481
0.346495
0.346583
0.34666
0.346804
0.346999
0.347265
0.347613
0.348054
0.348595
0.349242
0.349991
0.350848
0.351803
0.352855
0.35399
0.355196
0.356451
0.357732
0.359014
0.360273
0.361493
0.362667
0.363798
0.364897
0.365977
0.367058
0.368151
0.369274
0.370435
0.371641
0.372904
0.374221
0.375609
0.377069
0.378615
0.38025
0.381983
0.383813
0.385738
0.387751
0.389843
0.392004