/*--------------------------------*- C++ -*----------------------------------*\
  =========                 |
  \\      /  F ield         | OpenFOAM: The Open Source CFD Toolbox
   \\    /   O peration     | Website:  https://openfoam.org
    \\  /    A nd           | Version:  13
     \\/     M anipulation  |
\*---------------------------------------------------------------------------*/
FoamFile
{
    format      ascii;
    class       volScalarField;
    location    "0.002";
    object      T;
}
// * * * * * * * * * * * * * * * * * * * * * * * * * * * * * * * * * * * * * //

dimensions      [0 0 0 1 0 0 0];

internalField   nonuniform List<scalar> 
33334
(
2341.47
2341.51
2341.63
2341.75
2341.96
2342.24
2342.63
2343.11
2343.71
2344.47
2345.42
2346.56
2347.89
2349.38
2350.97
2352.64
2354.38
2356.19
2358.09
2360.08
2362.16
2364.32
2366.54
2368.87
2371.32
2373.9
2376.61
2379.45
2382.41
2385.48
2388.62
2391.83
2395.06
2398.3
2401.53
2404.7
2407.8
2410.81
2413.71
2416.51
2419.21
2421.87
2424.52
2427.24
2430.08
2433.1
2436.36
2439.89
2443.75
2447.96
2452.55
2457.52
2462.89
2468.62
2474.67
2480.99
2487.51
2494.18
2500.93
2507.69
2514.38
2520.93
2527.25
2533.28
2538.96
2544.25
2549.11
2553.54
2557.56
2561.18
2564.4
2567.21
2569.59
2571.57
2573.21
2574.68
2576.03
2577.22
2578.39
2579.42
2580.57
2581.76
2583.41
2584.78
2586.36
2587.68
2589.04
2590.66
2592.59
2594.74
2597.08
2599.62
2602.45
2605.63
2609.21
2613.12
2617.47
2622.3
2627.6
2633.38
2639.67
2646.42
2653.68
2661.4
2669.56
2678.16
2687.14
2696.48
2706.14
2716.13
2726.4
2736.91
2747.68
2758.67
2769.89
2781.31
2792.93
2804.72
2816.65
2828.71
2840.9
2853.21
2865.66
2878.22
2890.94
2903.9
2917.19
2931.01
2945.6
2961.32
2978.67
2998.28
3020.89
3047.14
3077.54
3112.55
3151.27
3186.07
3202.31
3196.1
3166.76
3101.54
3001.44
2886.22
2793.66
2764.03
2798.04
2520.91
1081.22
438.105
371.983
372.343
373.339
374.264
375.042
375.739
376.285
376.546
376.643
376.663
376.669
376.65
376.592
376.489
376.353
376.206
2341.51
2341.53
2341.65
2341.7
2341.9
2342.19
2342.58
2343.06
2343.66
2344.41
2345.34
2346.48
2347.8
2349.28
2350.86
2352.52
2354.25
2356.05
2357.95
2359.94
2362.02
2364.17
2366.4
2368.73
2371.17
2373.73
2376.43
2379.25
2382.19
2385.24
2388.36
2391.54
2394.75
2397.97
2401.17
2404.33
2407.42
2410.42
2413.31
2416.1
2418.8
2421.44
2424.09
2426.8
2429.63
2432.64
2435.88
2439.4
2443.24
2447.43
2451.99
2456.95
2462.28
2467.98
2474
2480.3
2486.81
2493.47
2500.21
2506.97
2513.66
2520.23
2526.58
2532.64
2538.35
2543.66
2548.56
2553.03
2557.09
2560.75
2564.02
2566.89
2569.32
2571.3
2572.95
2574.5
2575.9
2577.13
2578.18
2579.14
2580.3
2581.51
2582.6
2583.71
2584.99
2586.43
2588.18
2590.18
2592.31
2594.48
2596.77
2599.29
2602.1
2605.21
2608.68
2612.54
2616.83
2621.58
2626.81
2632.54
2638.75
2645.47
2652.67
2660.34
2668.49
2677.04
2685.98
2695.29
2704.95
2714.9
2725.13
2735.63
2746.37
2757.37
2768.59
2780
2791.61
2803.38
2815.27
2827.32
2839.49
2851.76
2864.17
2876.69
2889.38
2902.32
2915.59
2929.38
2943.96
2959.64
2976.95
2996.53
3019.08
3045.29
3075.67
3110.63
3149.35
3184.64
3201.26
3195.37
3167.04
3103.46
3004.71
2890.03
2796.87
2766.32
2800.93
2514.3
1076.58
436.412
372.359
372.78
373.792
374.716
375.415
375.885
376.173
376.402
376.539
376.592
376.605
376.592
376.547
376.463
376.344
376.203
2341.63
2341.65
2341.88
2341.93
2342.07
2342.3
2342.64
2343.09
2343.68
2344.43
2345.37
2346.51
2347.84
2349.31
2350.89
2352.56
2354.29
2356.08
2357.97
2359.96
2362.04
2364.19
2366.43
2368.75
2371.2
2373.76
2376.46
2379.29
2382.23
2385.27
2388.4
2391.59
2394.8
2398.03
2401.24
2404.41
2407.51
2410.51
2413.41
2416.2
2418.9
2421.55
2424.2
2426.9
2429.73
2432.73
2435.97
2439.48
2443.31
2447.48
2452.03
2456.96
2462.27
2467.94
2473.94
2480.21
2486.71
2493.35
2500.08
2506.83
2513.53
2520.09
2526.45
2532.52
2538.25
2543.58
2548.5
2552.99
2557.06
2560.73
2564.01
2566.93
2569.38
2571.33
2573.01
2574.56
2575.95
2577.21
2578.37
2579.52
2580.6
2582.06
2583.68
2585.37
2586.85
2588.23
2589.62
2591.14
2592.84
2594.75
2596.94
2599.47
2602.29
2605.41
2608.89
2612.76
2617.07
2621.85
2627.1
2632.86
2639.11
2645.85
2653.07
2660.77
2668.92
2677.49
2686.45
2695.78
2705.44
2715.41
2725.66
2736.18
2746.94
2757.94
2769.16
2780.57
2792.18
2803.95
2815.87
2827.95
2840.15
2852.47
2864.92
2877.5
2890.24
2903.22
2916.52
2930.33
2944.92
2960.62
2977.96
2997.57
3020.16
3046.41
3076.78
3111.68
3150.34
3185.57
3202.5
3196.94
3169.32
3107
3009.14
2894.28
2799.9
2768.01
2802.99
2484.48
1057.65
432.62
372.019
372.476
373.478
374.373
375.054
375.556
375.911
376.18
376.37
376.478
376.515
376.514
376.482
376.416
376.315
376.19
2341.75
2341.7
2341.93
2341.99
2342.15
2342.39
2342.74
2343.21
2343.81
2344.57
2345.52
2346.66
2347.97
2349.44
2351.02
2352.67
2354.4
2356.2
2358.1
2360.1
2362.2
2364.37
2366.62
2368.96
2371.41
2373.98
2376.68
2379.51
2382.46
2385.51
2388.64
2391.83
2395.05
2398.28
2401.5
2404.67
2407.77
2410.78
2413.67
2416.46
2419.16
2421.81
2424.45
2427.16
2429.98
2432.98
2436.21
2439.72
2443.53
2447.69
2452.21
2457.12
2462.41
2468.07
2474.07
2480.33
2486.82
2493.46
2500.19
2506.95
2513.66
2520.24
2526.61
2532.7
2538.44
2543.79
2548.71
2553.22
2557.3
2560.99
2564.3
2567.26
2569.76
2571.72
2573.48
2575.06
2576.47
2577.76
2578.94
2580.17
2581.4
2582.76
2584.12
2585.59
2587.13
2588.71
2590.3
2591.92
2593.65
2595.56
2597.75
2600.31
2603.12
2606.2
2609.62
2613.45
2617.72
2622.48
2627.74
2633.5
2639.75
2646.5
2653.73
2661.43
2669.59
2678.15
2687.11
2696.45
2706.11
2716.08
2726.34
2736.86
2747.62
2758.62
2769.83
2781.24
2792.83
2804.6
2816.52
2828.59
2840.8
2853.13
2865.58
2878.17
2890.93
2903.92
2917.22
2931.03
2945.61
2961.32
2978.67
2998.3
3020.93
3047.22
3077.62
3112.52
3151.14
3186.23
3203.11
3197.54
3169.68
3106.85
3008.77
2894.13
2800.02
2768.07
2803.85
2434.06
1028.07
427.567
371.856
372.343
373.322
374.15
374.755
375.213
375.576
375.873
376.112
376.285
376.376
376.403
376.391
376.347
376.269
376.163
2341.96
2341.9
2342.07
2342.15
2342.3
2342.53
2342.87
2343.34
2343.94
2344.71
2345.66
2346.8
2348.12
2349.58
2351.15
2352.8
2354.53
2356.33
2358.24
2360.25
2362.35
2364.53
2366.8
2369.15
2371.62
2374.2
2376.91
2379.75
2382.7
2385.76
2388.9
2392.09
2395.32
2398.56
2401.78
2404.96
2408.06
2411.06
2413.96
2416.74
2419.44
2422.08
2424.72
2427.43
2430.26
2433.26
2436.49
2440
2443.81
2447.96
2452.47
2457.37
2462.66
2468.3
2474.28
2480.54
2487.01
2493.65
2500.38
2507.14
2513.86
2520.46
2526.85
2532.96
2538.72
2544.08
2549.03
2553.55
2557.65
2561.36
2564.71
2567.71
2570.28
2572.32
2574.14
2575.77
2577.23
2578.57
2579.83
2581.11
2582.32
2583.54
2584.76
2586.12
2587.64
2589.3
2590.99
2592.72
2594.52
2596.51
2598.78
2601.34
2604.2
2607.28
2610.67
2614.45
2618.69
2623.43
2628.67
2634.42
2640.67
2647.42
2654.65
2662.36
2670.52
2679.09
2688.05
2697.38
2707.05
2717.02
2727.28
2737.8
2748.56
2759.56
2770.76
2782.16
2793.74
2805.49
2817.4
2829.46
2841.64
2853.96
2866.4
2878.98
2891.73
2904.7
2918
2931.8
2946.36
2962.08
2979.44
2999.07
3021.73
3048.05
3078.5
3113.46
3152.06
3186.9
3203.31
3197.41
3169.04
3105.54
3006.9
2892.24
2798.78
2767.63
2804.75
2380.52
999.612
422.732
371.615
372.119
373.055
373.818
374.377
374.818
375.184
375.501
375.777
376.007
376.172
376.256
376.275
376.256
376.203
376.12
2342.24
2342.19
2342.3
2342.39
2342.53
2342.76
2343.09
2343.55
2344.16
2344.92
2345.88
2347.02
2348.34
2349.79
2351.36
2353.02
2354.75
2356.56
2358.48
2360.5
2362.62
2364.81
2367.1
2369.47
2371.95
2374.55
2377.27
2380.12
2383.08
2386.14
2389.29
2392.49
2395.72
2398.97
2402.19
2405.36
2408.46
2411.46
2414.34
2417.12
2419.8
2422.44
2425.08
2427.79
2430.62
2433.63
2436.88
2440.39
2444.2
2448.36
2452.87
2457.76
2463.03
2468.67
2474.62
2480.86
2487.32
2493.95
2500.67
2507.44
2514.17
2520.78
2527.19
2533.32
2539.11
2544.49
2549.46
2554
2558.13
2561.88
2565.27
2568.32
2570.98
2573.13
2574.99
2576.68
2578.2
2579.61
2580.94
2582.24
2583.45
2584.62
2585.78
2587.08
2588.57
2590.21
2591.92
2593.71
2595.61
2597.71
2600.05
2602.66
2605.54
2608.63
2612.01
2615.77
2619.98
2624.69
2629.91
2635.65
2641.89
2648.64
2655.87
2663.59
2671.74
2680.32
2689.28
2698.62
2708.28
2718.25
2728.51
2739.02
2749.79
2760.77
2771.96
2783.34
2794.9
2806.62
2818.5
2830.52
2842.66
2854.94
2867.34
2879.89
2892.6
2905.54
2918.82
2932.6
2947.14
2962.85
2980.2
2999.85
3022.51
3048.86
3079.37
3114.4
3153.01
3187.57
3203.41
3197.12
3168.03
3103.57
3004.07
2889.16
2796.7
2767.33
2805.26
2320.02
970.23
417.476
371.315
371.824
372.705
373.412
373.941
374.372
374.742
375.074
375.379
375.656
375.889
376.052
376.128
376.141
376.116
376.058
2342.63
2342.58
2342.64
2342.74
2342.87
2343.09
2343.41
2343.86
2344.46
2345.23
2346.18
2347.33
2348.64
2350.1
2351.67
2353.32
2355.05
2356.88
2358.81
2360.84
2362.97
2365.19
2367.49
2369.88
2372.38
2375
2377.73
2380.59
2383.56
2386.63
2389.78
2393
2396.24
2399.49
2402.71
2405.88
2408.97
2411.96
2414.84
2417.6
2420.28
2422.91
2425.56
2428.27
2431.11
2434.13
2437.39
2440.91
2444.74
2448.9
2453.41
2458.3
2463.55
2469.16
2475.1
2481.32
2487.76
2494.37
2501.09
2507.85
2514.59
2521.22
2527.65
2533.8
2539.61
2545.02
2550.02
2554.6
2558.77
2562.57
2566.01
2569.11
2571.84
2574.09
2576.02
2577.76
2579.35
2580.82
2582.2
2583.52
2584.76
2585.94
2587.15
2588.44
2589.88
2591.45
2593.15
2594.96
2596.94
2599.11
2601.51
2604.15
2607.06
2610.17
2613.56
2617.32
2621.54
2626.24
2631.44
2637.17
2643.4
2650.14
2657.37
2665.08
2673.24
2681.81
2690.78
2700.12
2709.78
2719.75
2730
2740.51
2751.27
2762.24
2773.4
2784.76
2796.29
2807.97
2819.81
2831.77
2843.86
2856.09
2868.43
2880.91
2893.57
2906.45
2919.69
2933.44
2947.97
2963.66
2981.01
3000.66
3023.33
3049.7
3080.27
3115.38
3154.04
3188.39
3203.68
3196.98
3167.08
3101.58
3001.21
2886.13
2795.02
2768.38
2807.65
2242.1
933.952
411.35
370.926
371.447
372.279
372.943
373.454
373.881
374.257
374.604
374.935
375.249
375.536
375.772
375.93
375.998
376.005
375.975
2343.11
2343.06
2343.09
2343.21
2343.34
2343.55
2343.86
2344.3
2344.88
2345.65
2346.6
2347.75
2349.07
2350.52
2352.09
2353.74
2355.47
2357.31
2359.25
2361.3
2363.45
2365.69
2368.01
2370.42
2372.94
2375.57
2378.32
2381.19
2384.17
2387.25
2390.42
2393.64
2396.89
2400.14
2403.37
2406.54
2409.62
2412.6
2415.47
2418.23
2420.9
2423.52
2426.17
2428.88
2431.73
2434.77
2438.04
2441.58
2445.41
2449.58
2454.09
2458.97
2464.22
2469.81
2475.73
2481.92
2488.34
2494.93
2501.64
2508.4
2515.14
2521.78
2528.23
2534.41
2540.25
2545.69
2550.73
2555.35
2559.56
2563.41
2566.9
2570.06
2572.85
2575.18
2577.17
2578.98
2580.63
2582.16
2583.58
2584.92
2586.21
2587.47
2588.74
2590.08
2591.51
2593.06
2594.73
2596.56
2598.57
2600.77
2603.17
2605.81
2608.73
2611.86
2615.27
2619.06
2623.28
2627.98
2633.18
2638.89
2645.11
2651.84
2659.07
2666.77
2674.92
2683.5
2692.48
2701.81
2711.47
2721.43
2731.68
2742.18
2752.92
2763.86
2775.01
2786.33
2797.81
2809.45
2821.23
2833.13
2845.15
2857.3
2869.57
2881.98
2894.56
2907.4
2920.59
2934.31
2948.83
2964.52
2981.88
3001.57
3024.28
3050.71
3081.34
3116.57
3155.31
3189.44
3204.18
3197.02
3166.22
3099.64
2998.45
2883.49
2793.73
2769.81
2811.2
2148.63
891.792
404.799
370.465
371.001
371.791
372.424
372.922
373.35
373.736
374.1
374.454
374.8
375.129
375.423
375.656
375.806
375.866
375.868
2343.71
2343.66
2343.68
2343.81
2343.94
2344.16
2344.46
2344.88
2345.46
2346.23
2347.19
2348.34
2349.65
2351.1
2352.65
2354.29
2356.02
2357.86
2359.81
2361.88
2364.05
2366.31
2368.65
2371.09
2373.63
2376.28
2379.05
2381.93
2384.93
2388.03
2391.2
2394.43
2397.69
2400.95
2404.17
2407.34
2410.42
2413.39
2416.25
2419
2421.66
2424.29
2426.93
2429.65
2432.51
2435.56
2438.85
2442.4
2446.25
2450.42
2454.94
2459.81
2465.05
2470.62
2476.52
2482.69
2489.09
2495.67
2502.36
2509.11
2515.85
2522.5
2528.96
2535.16
2541.03
2546.51
2551.59
2556.24
2560.51
2564.39
2567.94
2571.14
2573.99
2576.39
2578.44
2580.3
2582.02
2583.59
2585.06
2586.46
2587.81
2589.15
2590.51
2591.92
2593.39
2594.95
2596.64
2598.47
2600.47
2602.64
2605.01
2607.63
2610.55
2613.69
2617.13
2620.94
2625.18
2629.88
2635.08
2640.79
2647
2653.73
2660.95
2668.64
2676.79
2685.37
2694.34
2703.67
2713.33
2723.29
2733.52
2744.01
2754.72
2765.64
2776.74
2788.03
2799.46
2811.05
2822.76
2834.59
2846.55
2858.62
2870.82
2883.17
2895.69
2908.47
2921.62
2935.32
2949.82
2965.51
2982.9
3002.65
3025.43
3051.93
3082.65
3117.99
3156.82
3190.68
3204.8
3197.15
3165.41
3097.61
2995.59
2880.94
2792.87
2771.1
2814.56
2050.05
848.328
398.408
369.949
370.497
371.254
371.862
372.354
372.785
373.183
373.564
373.941
374.316
374.68
375.019
375.312
375.538
375.678
375.732
2344.47
2344.41
2344.43
2344.57
2344.71
2344.92
2345.23
2345.65
2346.23
2346.99
2347.95
2349.1
2350.39
2351.82
2353.35
2354.98
2356.7
2358.55
2360.51
2362.6
2364.79
2367.07
2369.44
2371.91
2374.47
2377.15
2379.94
2382.85
2385.86
2388.97
2392.16
2395.4
2398.66
2401.92
2405.14
2408.3
2411.38
2414.35
2417.21
2419.95
2422.62
2425.24
2427.88
2430.61
2433.48
2436.54
2439.84
2443.4
2447.26
2451.44
2455.96
2460.83
2466.05
2471.62
2477.49
2483.65
2490.03
2496.59
2503.27
2510
2516.74
2523.38
2529.86
2536.08
2541.98
2547.5
2552.61
2557.3
2561.6
2565.54
2569.12
2572.37
2575.27
2577.73
2579.82
2581.74
2583.5
2585.14
2586.67
2588.13
2589.55
2590.97
2592.41
2593.89
2595.43
2597.05
2598.77
2600.6
2602.57
2604.71
2607.03
2609.65
2612.56
2615.71
2619.16
2622.99
2627.24
2631.96
2637.16
2642.87
2649.08
2655.8
2663.02
2670.72
2678.87
2687.45
2696.42
2705.74
2715.4
2725.35
2735.57
2746.03
2756.72
2767.6
2778.67
2789.91
2801.29
2812.83
2824.48
2836.25
2848.14
2860.15
2872.28
2884.56
2897.02
2909.75
2922.86
2936.52
2951.02
2966.71
2984.13
3003.93
3026.8
3053.39
3084.22
3119.68
3158.59
3192.09
3205.44
3197.26
3164.5
3095.35
2992.37
2877.9
2791.65
2772.69
2817.49
1949.84
803.516
392.289
369.386
369.945
370.676
371.267
371.756
372.193
372.603
373.003
373.402
373.802
374.196
374.572
374.911
375.199
375.416
375.549
2345.42
2345.34
2345.37
2345.52
2345.66
2345.88
2346.18
2346.6
2347.19
2347.95
2348.9
2350.03
2351.3
2352.7
2354.21
2355.82
2357.54
2359.38
2361.36
2363.46
2365.67
2367.98
2370.39
2372.88
2375.48
2378.19
2381.01
2383.94
2386.97
2390.1
2393.3
2396.54
2399.81
2403.07
2406.29
2409.46
2412.53
2415.5
2418.36
2421.11
2423.77
2426.4
2429.05
2431.78
2434.66
2437.73
2441.04
2444.61
2448.48
2452.66
2457.17
2462.04
2467.25
2472.81
2478.67
2484.81
2491.17
2497.71
2504.37
2511.1
2517.82
2524.46
2530.95
2537.19
2543.11
2548.66
2553.8
2558.54
2562.88
2566.85
2570.48
2573.77
2576.7
2579.21
2581.35
2583.31
2585.13
2586.83
2588.43
2589.95
2591.44
2592.93
2594.44
2596
2597.61
2599.28
2601.03
2602.87
2604.83
2606.94
2609.25
2611.86
2614.77
2617.93
2621.4
2625.25
2629.52
2634.25
2639.47
2645.19
2651.42
2658.15
2665.38
2673.08
2681.23
2689.82
2698.79
2708.11
2717.76
2727.7
2737.91
2748.35
2759.01
2769.86
2780.89
2792.08
2803.41
2814.89
2826.48
2838.19
2850.02
2861.96
2874.03
2886.25
2898.65
2911.33
2924.4
2938.02
2952.5
2968.19
2985.61
3005.46
3028.4
3055.09
3086.04
3121.63
3160.6
3193.63
3206.05
3197.26
3163.33
3092.66
2988.63
2874.47
2790.31
2775.12
2821.47
1845.82
756.213
386.452
368.783
369.356
370.068
370.648
371.136
371.579
372.001
372.418
372.837
373.261
373.682
374.089
374.466
374.802
375.082
375.293
2346.56
2346.48
2346.51
2346.66
2346.8
2347.02
2347.33
2347.75
2348.34
2349.1
2350.03
2351.13
2352.37
2353.74
2355.22
2356.81
2358.53
2360.38
2362.37
2364.5
2366.73
2369.07
2371.51
2374.05
2376.68
2379.42
2382.27
2385.23
2388.29
2391.43
2394.64
2397.9
2401.17
2404.43
2407.66
2410.82
2413.9
2416.88
2419.74
2422.49
2425.16
2427.8
2430.46
2433.19
2436.08
2439.15
2442.47
2446.04
2449.91
2454.1
2458.61
2463.47
2468.68
2474.22
2480.07
2486.19
2492.54
2499.06
2505.71
2512.41
2519.12
2525.75
2532.24
2538.49
2544.44
2550.02
2555.21
2559.98
2564.36
2568.36
2572.02
2575.35
2578.33
2580.88
2583.06
2585.07
2586.93
2588.69
2590.35
2591.94
2593.5
2595.05
2596.62
2598.24
2599.9
2601.62
2603.4
2605.25
2607.22
2609.33
2611.66
2614.29
2617.21
2620.39
2623.89
2627.77
2632.07
2636.83
2642.08
2647.83
2654.09
2660.84
2668.09
2675.81
2683.98
2692.58
2701.55
2710.87
2720.52
2730.44
2740.63
2751.05
2761.68
2772.49
2783.49
2794.63
2805.91
2817.32
2828.85
2840.5
2852.27
2864.14
2876.15
2888.31
2900.65
2913.27
2926.28
2939.85
2954.29
2969.97
2987.38
3007.25
3030.24
3057.01
3088.09
3123.81
3162.84
3195.33
3206.72
3197.25
3161.98
3089.65
2984.52
2870.88
2789.17
2777.68
2825.45
1747.28
709.661
381.31
368.147
368.738
369.438
370.01
370.498
370.947
371.38
371.812
372.249
372.694
373.14
373.574
373.984
374.359
374.689
374.963
2347.89
2347.8
2347.84
2347.97
2348.12
2348.34
2348.64
2349.07
2349.65
2350.39
2351.3
2352.37
2353.57
2354.91
2356.37
2357.95
2359.67
2361.54
2363.55
2365.7
2367.97
2370.34
2372.82
2375.4
2378.08
2380.86
2383.74
2386.73
2389.81
2392.97
2396.2
2399.46
2402.74
2406.01
2409.25
2412.42
2415.51
2418.49
2421.37
2424.13
2426.81
2429.46
2432.12
2434.87
2437.76
2440.84
2444.15
2447.73
2451.6
2455.78
2460.29
2465.14
2470.34
2475.87
2481.71
2487.81
2494.15
2500.65
2507.27
2513.96
2520.65
2527.28
2533.76
2540.03
2546
2551.61
2556.83
2561.65
2566.06
2570.11
2573.81
2577.17
2580.18
2582.78
2585
2587.04
2588.95
2590.76
2592.47
2594.13
2595.74
2597.35
2598.97
2600.63
2602.33
2604.08
2605.89
2607.78
2609.77
2611.93
2614.3
2616.95
2619.91
2623.13
2626.68
2630.6
2634.96
2639.78
2645.08
2650.88
2657.17
2663.96
2671.24
2678.99
2687.18
2695.79
2704.77
2714.09
2723.73
2733.65
2743.81
2754.21
2764.8
2775.58
2786.52
2797.61
2808.83
2820.18
2831.64
2843.22
2854.92
2866.73
2878.67
2890.76
2903.03
2915.58
2928.5
2942.01
2956.39
2972.04
2989.43
3009.3
3032.32
3059.18
3090.38
3126.24
3165.3
3197.18
3207.44
3197.21
3160.45
3086.31
2980.01
2866.92
2788.24
2780.41
2826.73
1653.79
663.693
376.735
367.493
368.098
368.791
369.357
369.846
370.301
370.743
371.187
371.641
372.105
372.572
373.03
373.469
373.877
374.248
374.573
2349.38
2349.28
2349.31
2349.44
2349.58
2349.79
2350.1
2350.52
2351.1
2351.82
2352.7
2353.74
2354.91
2356.23
2357.67
2359.25
2360.98
2362.87
2364.91
2367.09
2369.4
2371.82
2374.34
2376.97
2379.69
2382.51
2385.42
2388.44
2391.55
2394.73
2397.98
2401.25
2404.55
2407.83
2411.08
2414.27
2417.37
2420.37
2423.26
2426.04
2428.74
2431.4
2434.07
2436.82
2439.71
2442.8
2446.11
2449.69
2453.56
2457.73
2462.23
2467.07
2472.25
2477.77
2483.59
2489.69
2496
2502.49
2509.09
2515.76
2522.44
2529.05
2535.53
2541.8
2547.79
2553.44
2558.7
2563.56
2568.02
2572.11
2575.85
2579.24
2582.29
2584.93
2587.2
2589.27
2591.22
2593.07
2594.83
2596.53
2598.19
2599.85
2601.51
2603.21
2604.94
2606.73
2608.57
2610.5
2612.55
2614.76
2617.19
2619.9
2622.91
2626.21
2629.83
2633.83
2638.26
2643.15
2648.52
2654.38
2660.72
2667.56
2674.88
2682.66
2690.88
2699.51
2708.5
2717.82
2727.45
2737.34
2747.49
2757.85
2768.4
2779.13
2790.02
2801.05
2812.2
2823.48
2834.86
2846.36
2857.99
2869.71
2881.57
2893.58
2905.77
2918.22
2931.06
2944.49
2958.8
2974.4
2991.77
3011.64
3034.69
3061.61
3092.92
3128.92
3167.98
3199.22
3208.29
3197.26
3158.94
3082.87
2975.38
2863.02
2787.44
2784.14
2826.28
1558.9
617.944
372.863
366.823
367.446
368.131
368.694
369.183
369.641
370.091
370.545
371.013
371.493
371.98
372.46
372.924
373.361
373.766
374.134
2350.97
2350.86
2350.89
2351.02
2351.15
2351.36
2351.67
2352.09
2352.65
2353.35
2354.21
2355.22
2356.37
2357.67
2359.1
2360.69
2362.45
2364.37
2366.45
2368.67
2371.03
2373.5
2376.07
2378.75
2381.51
2384.37
2387.33
2390.38
2393.52
2396.72
2399.99
2403.29
2406.6
2409.9
2413.17
2416.38
2419.51
2422.53
2425.44
2428.24
2430.95
2433.62
2436.3
2439.06
2441.96
2445.04
2448.36
2451.93
2455.79
2459.96
2464.44
2469.27
2474.44
2479.93
2485.74
2491.81
2498.11
2504.58
2511.17
2517.83
2524.49
2531.09
2537.57
2543.84
2549.85
2555.52
2560.83
2565.74
2570.26
2574.39
2578.17
2581.61
2584.69
2587.37
2589.68
2591.78
2593.76
2595.64
2597.44
2599.18
2600.89
2602.58
2604.28
2606.02
2607.79
2609.62
2611.51
2613.49
2615.6
2617.89
2620.39
2623.18
2626.28
2629.67
2633.39
2637.48
2642.01
2647
2652.45
2658.38
2664.79
2671.68
2679.05
2686.87
2695.12
2703.76
2712.75
2722.07
2731.68
2741.56
2751.66
2761.98
2772.48
2783.15
2793.98
2804.93
2816.01
2827.2
2838.49
2849.91
2861.43
2873.07
2884.83
2896.75
2908.84
2921.19
2933.93
2947.27
2961.5
2977.04
2994.39
3014.26
3037.34
3064.32
3095.73
3131.87
3170.91
3201.46
3209.2
3197.32
3157.28
3079.17
2970.57
2859.28
2787.15
2787.66
2816.34
1464.96
572.212
369.832
366.144
366.783
367.463
368.021
368.511
368.971
369.426
369.889
370.368
370.863
371.365
371.865
372.351
372.815
373.25
373.654
2352.64
2352.52
2352.56
2352.67
2352.8
2353.02
2353.32
2353.74
2354.29
2354.98
2355.82
2356.81
2357.95
2359.25
2360.69
2362.31
2364.1
2366.06
2368.18
2370.46
2372.87
2375.39
2378.02
2380.75
2383.56
2386.47
2389.46
2392.55
2395.71
2398.95
2402.24
2405.57
2408.91
2412.23
2415.53
2418.76
2421.92
2424.97
2427.9
2430.72
2433.45
2436.14
2438.83
2441.59
2444.49
2447.58
2450.89
2454.46
2458.32
2462.47
2466.94
2471.75
2476.89
2482.37
2488.15
2494.21
2500.49
2506.94
2513.52
2520.17
2526.82
2533.41
2539.88
2546.15
2552.17
2557.88
2563.22
2568.18
2572.76
2576.95
2580.78
2584.26
2587.38
2590.11
2592.45
2594.59
2596.59
2598.5
2600.32
2602.1
2603.84
2605.58
2607.32
2609.1
2610.92
2612.8
2614.75
2616.8
2618.99
2621.37
2623.97
2626.86
2630.07
2633.58
2637.42
2641.63
2646.27
2651.36
2656.91
2662.93
2669.41
2676.36
2683.78
2691.63
2699.9
2708.55
2717.55
2726.86
2736.44
2746.28
2756.34
2766.6
2777.04
2787.63
2798.37
2809.23
2820.22
2831.31
2842.51
2853.82
2865.24
2876.77
2888.43
2900.23
2912.21
2924.45
2937.09
2950.34
2964.5
2979.97
2997.28
3017.17
3040.28
3067.32
3098.83
3135.11
3174.12
3203.88
3210.24
3197.44
3155.6
3075.39
2965.6
2855.49
2787.19
2792.76
2787.12
1364.33
528.334
367.295
365.459
366.115
366.788
367.341
367.829
368.291
368.75
369.22
369.708
370.214
370.731
371.248
371.753
372.24
372.702
373.137
2354.38
2354.25
2354.29
2354.4
2354.53
2354.75
2355.05
2355.47
2356.02
2356.7
2357.54
2358.53
2359.67
2360.98
2362.45
2364.1
2365.92
2367.93
2370.11
2372.44
2374.91
2377.5
2380.18
2382.96
2385.82
2388.77
2391.81
2394.93
2398.13
2401.4
2404.73
2408.08
2411.46
2414.82
2418.15
2421.41
2424.6
2427.67
2430.63
2433.48
2436.23
2438.93
2441.64
2444.41
2447.31
2450.4
2453.71
2457.28
2461.12
2465.26
2469.72
2474.5
2479.62
2485.07
2490.83
2496.86
2503.13
2509.57
2516.14
2522.78
2529.42
2536.01
2542.47
2548.75
2554.78
2560.5
2565.89
2570.9
2575.53
2579.79
2583.68
2587.21
2590.38
2593.14
2595.53
2597.7
2599.72
2601.65
2603.5
2605.3
2607.08
2608.86
2610.65
2612.48
2614.36
2616.31
2618.35
2620.49
2622.78
2625.27
2628
2631.02
2634.37
2638.01
2641.99
2646.33
2651.09
2656.3
2661.96
2668.06
2674.62
2681.64
2689.09
2696.98
2705.26
2713.91
2722.9
2732.18
2741.73
2751.52
2761.52
2771.7
2782.05
2792.55
2803.19
2813.95
2824.82
2835.8
2846.89
2858.08
2869.38
2880.8
2892.34
2904.02
2915.89
2928.02
2940.55
2953.71
2967.78
2983.19
3000.47
3020.36
3043.5
3070.61
3102.22
3138.63
3177.58
3206.49
3211.36
3197.57
3153.7
3071.3
2960.41
2851.58
2787.66
2797.89
2720.44
1256.93
487.2
365.512
364.768
365.443
366.107
366.655
367.141
367.603
368.064
368.539
369.034
369.55
370.078
370.609
371.132
371.638
372.124
372.587
2356.19
2356.05
2356.08
2356.2
2356.33
2356.56
2356.88
2357.31
2357.86
2358.55
2359.38
2360.38
2361.54
2362.87
2364.37
2366.06
2367.93
2369.99
2372.23
2374.63
2377.16
2379.8
2382.54
2385.37
2388.28
2391.28
2394.36
2397.52
2400.76
2404.08
2407.44
2410.84
2414.25
2417.65
2421.01
2424.31
2427.53
2430.64
2433.63
2436.5
2439.28
2442
2444.72
2447.5
2450.41
2453.49
2456.8
2460.36
2464.2
2468.32
2472.76
2477.52
2482.61
2488.03
2493.77
2499.78
2506.03
2512.46
2519.02
2525.66
2532.3
2538.89
2545.35
2551.63
2557.66
2563.4
2568.82
2573.88
2578.58
2582.89
2586.84
2590.44
2593.66
2596.47
2598.9
2601.1
2603.15
2605.11
2606.98
2608.82
2610.63
2612.45
2614.3
2616.2
2618.16
2620.2
2622.34
2624.6
2627.03
2629.66
2632.54
2635.71
2639.23
2643.03
2647.17
2651.66
2656.56
2661.89
2667.65
2673.85
2680.48
2687.55
2695.05
2702.95
2711.24
2719.87
2728.82
2738.06
2747.55
2757.27
2767.18
2777.27
2787.52
2797.9
2808.42
2819.06
2829.81
2840.66
2851.62
2862.69
2873.86
2885.16
2896.57
2908.13
2919.88
2931.89
2944.31
2957.37
2971.36
2986.71
3003.96
3023.83
3047
3074.19
3105.91
3142.44
3181.31
3209.27
3212.65
3197.73
3151.62
3066.97
2955.08
2847.94
2788.91
2804.79
2589.64
1136.49
448.552
364.201
364.077
364.77
365.422
365.962
366.445
366.906
367.368
367.847
368.348
368.871
369.409
369.951
370.488
371.012
371.519
372.007
2358.09
2357.95
2357.97
2358.1
2358.24
2358.48
2358.81
2359.25
2359.81
2360.51
2361.36
2362.37
2363.55
2364.91
2366.45
2368.18
2370.11
2372.23
2374.53
2376.99
2379.58
2382.29
2385.09
2387.97
2390.93
2393.97
2397.09
2400.31
2403.59
2406.95
2410.36
2413.8
2417.26
2420.7
2424.1
2427.44
2430.69
2433.83
2436.86
2439.76
2442.56
2445.3
2448.04
2450.83
2453.74
2456.83
2460.14
2463.69
2467.51
2471.62
2476.04
2480.78
2485.84
2491.24
2496.95
2502.94
2509.18
2515.6
2522.16
2528.8
2535.45
2542.04
2548.51
2554.79
2560.83
2566.59
2572.03
2577.13
2581.88
2586.26
2590.28
2593.93
2597.22
2600.08
2602.57
2604.81
2606.9
2608.88
2610.79
2612.66
2614.52
2616.39
2618.31
2620.29
2622.34
2624.5
2626.77
2629.19
2631.78
2634.6
2637.67
2641.03
2644.74
2648.74
2653.04
2657.7
2662.75
2668.2
2674.07
2680.35
2687.05
2694.16
2701.67
2709.57
2717.83
2726.42
2735.31
2744.48
2753.88
2763.5
2773.3
2783.28
2793.4
2803.66
2814.04
2824.54
2835.15
2845.86
2856.68
2867.61
2878.65
2889.82
2901.1
2912.53
2924.17
2936.06
2948.37
2961.33
2975.25
2990.53
3007.74
3027.6
3050.81
3078.08
3109.9
3146.54
3185.25
3212.19
3214.11
3197.92
3149.48
3062.44
2949.58
2844.33
2789.92
2811.98
2384.54
1006.74
420.027
363.167
363.386
364.097
364.733
365.265
365.743
366.202
366.664
367.145
367.65
368.179
368.724
369.276
369.825
370.364
370.889
371.398
2360.08
2359.94
2359.96
2360.1
2360.25
2360.5
2360.84
2361.3
2361.88
2362.6
2363.46
2364.5
2365.7
2367.09
2368.67
2370.46
2372.44
2374.63
2376.99
2379.51
2382.17
2384.93
2387.79
2390.72
2393.74
2396.83
2400
2403.26
2406.59
2410
2413.46
2416.95
2420.46
2423.94
2427.39
2430.76
2434.06
2437.23
2440.29
2443.23
2446.06
2448.83
2451.58
2454.38
2457.3
2460.39
2463.69
2467.23
2471.05
2475.14
2479.54
2484.26
2489.3
2494.67
2500.36
2506.34
2512.56
2518.98
2525.54
2532.19
2538.84
2545.45
2551.93
2558.22
2564.27
2570.03
2575.5
2580.63
2585.42
2589.86
2593.95
2597.68
2601.03
2603.96
2606.51
2608.81
2610.94
2612.97
2614.92
2616.84
2618.75
2620.7
2622.7
2624.78
2626.96
2629.27
2631.71
2634.33
2637.14
2640.19
2643.49
2647.06
2651.02
2655.23
2659.73
2664.56
2669.76
2675.32
2681.27
2687.6
2694.33
2701.44
2708.94
2716.8
2725.01
2733.52
2742.32
2751.38
2760.66
2770.16
2779.82
2789.66
2799.63
2809.74
2819.98
2830.33
2840.79
2851.35
2862.03
2872.82
2883.72
2894.75
2905.9
2917.22
2928.74
2940.52
2952.73
2965.59
2979.42
2994.65
3011.83
3031.67
3054.91
3082.26
3114.18
3150.92
3189.39
3215.26
3215.84
3198.19
3147.22
3057.75
2943.88
2840.65
2792.4
2819.51
2136.23
888.881
399.17
362.296
362.705
363.419
364.041
364.564
365.036
365.491
365.952
366.434
366.942
367.475
368.026
368.586
369.144
369.695
370.235
370.763
2362.16
2362.02
2362.04
2362.2
2362.35
2362.62
2362.97
2363.45
2364.05
2364.79
2365.67
2366.73
2367.97
2369.4
2371.03
2372.87
2374.91
2377.16
2379.58
2382.17
2384.88
2387.71
2390.62
2393.61
2396.67
2399.82
2403.04
2406.35
2409.74
2413.21
2416.72
2420.26
2423.82
2427.34
2430.83
2434.25
2437.59
2440.8
2443.9
2446.87
2449.73
2452.52
2455.29
2458.11
2461.03
2464.11
2467.41
2470.95
2474.75
2478.84
2483.22
2487.92
2492.94
2498.29
2503.96
2509.92
2516.14
2522.56
2529.13
2535.79
2542.47
2549.09
2555.59
2561.9
2567.97
2573.75
2579.23
2584.38
2589.22
2593.71
2597.86
2601.66
2605.09
2608.09
2610.72
2613.09
2615.28
2617.37
2619.39
2621.37
2623.36
2625.4
2627.51
2629.73
2632.08
2634.59
2637.26
2640.13
2643.21
2646.54
2650.11
2653.96
2658.17
2662.61
2667.29
2672.28
2677.59
2683.23
2689.22
2695.56
2702.28
2709.35
2716.78
2724.56
2732.66
2741.06
2749.73
2758.64
2767.77
2777.11
2786.61
2796.29
2806.1
2816.06
2826.13
2836.33
2846.64
2857.05
2867.59
2878.23
2889
2899.9
2910.93
2922.13
2933.54
2945.22
2957.33
2970.09
2983.84
2999.02
3016.17
3036.03
3059.31
3086.69
3118.76
3155.6
3193.73
3218.39
3217.87
3198.44
3144.83
3052.98
2938.41
2837.7
2795.49
2826.04
1909.59
786.878
384.273
361.525
362.03
362.74
363.347
363.861
364.326
364.776
365.235
365.716
366.226
366.761
367.316
367.881
368.447
369.008
369.561
370.104
2364.32
2364.17
2364.19
2364.37
2364.53
2364.81
2365.19
2365.69
2366.31
2367.07
2367.98
2369.07
2370.34
2371.82
2373.5
2375.39
2377.5
2379.8
2382.29
2384.93
2387.71
2390.59
2393.56
2396.6
2399.72
2402.92
2406.2
2409.57
2413.02
2416.54
2420.11
2423.71
2427.31
2430.88
2434.42
2437.88
2441.25
2444.51
2447.64
2450.65
2453.54
2456.35
2459.14
2461.96
2464.88
2467.97
2471.26
2474.8
2478.59
2482.67
2487.04
2491.73
2496.73
2502.07
2507.73
2513.69
2519.9
2526.33
2532.92
2539.59
2546.3
2552.96
2559.49
2565.82
2571.91
2577.71
2583.2
2588.37
2593.23
2597.76
2601.97
2605.84
2609.35
2612.45
2615.17
2617.63
2619.91
2622.08
2624.17
2626.24
2628.34
2630.51
2632.78
2635.21
2637.8
2640.58
2643.56
2646.76
2650.18
2653.82
2657.7
2661.83
2666.28
2670.93
2675.75
2680.84
2686.21
2691.86
2697.84
2704.12
2710.76
2717.72
2725.03
2732.67
2740.61
2748.84
2757.33
2766.07
2775.02
2784.19
2793.51
2803.02
2812.67
2822.46
2832.38
2842.43
2852.59
2862.86
2873.26
2883.77
2894.42
2905.2
2916.12
2927.21
2938.51
2950.08
2962.11
2974.79
2988.47
3003.59
3020.72
3040.6
3063.91
3091.36
3123.6
3160.54
3198.25
3221.57
3220.03
3198.59
3142.15
3047.66
2932.51
2834.66
2797.96
2830.66
1720.59
696.555
373.846
360.806
361.364
362.064
362.655
363.156
363.612
364.057
364.512
364.992
365.502
366.039
366.597
367.165
367.737
368.305
368.868
369.425
2366.54
2366.4
2366.43
2366.62
2366.8
2367.1
2367.49
2368.01
2368.65
2369.44
2370.39
2371.51
2372.82
2374.34
2376.07
2378.02
2380.18
2382.54
2385.09
2387.79
2390.62
2393.56
2396.58
2399.68
2402.86
2406.12
2409.46
2412.89
2416.4
2419.98
2423.6
2427.25
2430.9
2434.51
2438.09
2441.6
2445.01
2448.31
2451.48
2454.51
2457.43
2460.26
2463.06
2465.89
2468.82
2471.91
2475.2
2478.73
2482.53
2486.6
2490.97
2495.64
2500.64
2505.97
2511.62
2517.58
2523.8
2530.25
2536.85
2543.56
2550.3
2557
2563.57
2569.94
2576.06
2581.89
2587.4
2592.58