/*--------------------------------*- C++ -*----------------------------------*\
  =========                 |
  \\      /  F ield         | OpenFOAM: The Open Source CFD Toolbox
   \\    /   O peration     | Website:  https://openfoam.org
    \\  /    A nd           | Version:  13
     \\/     M anipulation  |
\*---------------------------------------------------------------------------*/
FoamFile
{
    format      ascii;
    class       volVectorField;
    location    "0.002";
    object      U;
}
// * * * * * * * * * * * * * * * * * * * * * * * * * * * * * * * * * * * * * //

dimensions      [0 1 -1 0 0 0 0];

internalField   nonuniform List<vector> 
33334
(
(2.72562 2.72562 0)
(8.34753 2.88172 0)
(13.8619 2.81337 0)
(18.9592 2.02528 0)
(23.5806 1.12965 0)
(27.9122 0.288698 0)
(31.9816 -0.465305 0)
(35.7829 -1.09878 0)
(39.2618 -1.6624 0)
(42.4089 -2.2379 0)
(45.2667 -2.82397 0)
(47.8684 -3.35801 0)
(50.2084 -3.7761 0)
(52.2559 -4.05117 0)
(53.971 -4.20167 0)
(55.3364 -4.26499 0)
(56.3811 -4.27919 0)
(57.1302 -4.27562 0)
(57.6126 -4.2691 0)
(57.8779 -4.26177 0)
(57.9693 -4.25401 0)
(57.9367 -4.24303 0)
(57.8288 -4.22863 0)
(57.6887 -4.21011 0)
(57.5547 -4.19108 0)
(57.4585 -4.18507 0)
(57.4362 -4.19828 0)
(57.5362 -4.23136 0)
(57.7904 -4.28796 0)
(58.2344 -4.36473 0)
(58.8956 -4.46613 0)
(59.7941 -4.59741 0)
(60.9539 -4.75351 0)
(62.3779 -4.94457 0)
(64.0786 -5.16273 0)
(66.0566 -5.406 0)
(68.2909 -5.67646 0)
(70.7527 -5.9635 0)
(73.4087 -6.24851 0)
(76.2166 -6.51997 0)
(79.1322 -6.77534 0)
(82.1236 -7.01786 0)
(85.1776 -7.25342 0)
(88.2946 -7.48583 0)
(91.4781 -7.71501 0)
(94.7289 -7.9416 0)
(98.0455 -8.16948 0)
(101.427 -8.4053 0)
(104.875 -8.65297 0)
(108.398 -8.91379 0)
(112.003 -9.18536 0)
(115.697 -9.46139 0)
(119.471 -9.73647 0)
(123.306 -10.007 0)
(127.175 -10.2704 0)
(131.057 -10.5269 0)
(134.939 -10.7812 0)
(138.815 -11.0374 0)
(142.678 -11.2963 0)
(146.513 -11.5545 0)
(150.296 -11.8083 0)
(153.998 -12.0542 0)
(157.589 -12.2933 0)
(161.038 -12.5179 0)
(164.315 -12.7202 0)
(167.39 -12.9015 0)
(170.234 -13.0619 0)
(172.826 -13.2116 0)
(175.149 -13.3587 0)
(177.184 -13.5084 0)
(178.891 -13.6608 0)
(180.186 -13.7968 0)
(180.983 -13.8931 0)
(181.275 -13.9492 0)
(181.125 -13.9818 0)
(180.696 -13.8658 0)
(179.977 -13.5973 0)
(178.769 -13.6016 0)
(177.506 -14.5007 0)
(176.039 -15.6229 0)
(174.847 -15.3119 0)
(175.007 -12.5699 0)
(175.317 -7.71389 0)
(173.154 -5.48042 0)
(169.649 -5.94776 0)
(165.779 -7.36083 0)
(162.316 -9.05585 0)
(159.506 -10.3455 0)
(157.107 -10.9631 0)
(155.027 -11.2977 0)
(153.194 -11.5338 0)
(151.62 -11.6756 0)
(150.344 -11.7312 0)
(149.392 -11.7063 0)
(148.751 -11.6611 0)
(148.505 -11.7315 0)
(148.901 -11.9246 0)
(150.091 -12.2269 0)
(152.141 -12.6345 0)
(155.033 -12.9719 0)
(158.704 -13.4782 0)
(163.124 -13.8147 0)
(168.181 -14.3488 0)
(173.844 -14.8132 0)
(180.023 -15.1157 0)
(186.71 -15.637 0)
(193.92 -16.3205 0)
(201.585 -16.8023 0)
(209.633 -17.1796 0)
(218.104 -17.8192 0)
(227.052 -18.598 0)
(236.415 -19.2151 0)
(246.056 -19.7608 0)
(255.928 -20.0731 0)
(266.059 -20.4723 0)
(276.488 -21.0775 0)
(287.234 -21.6742 0)
(298.276 -22.3645 0)
(309.531 -23.1645 0)
(320.926 -23.7034 0)
(332.408 -24.1439 0)
(343.942 -24.6518 0)
(355.557 -25.0841 0)
(367.237 -25.5075 0)
(378.875 -25.9469 0)
(390.44 -26.1639 0)
(401.85 -26.5637 0)
(412.935 -27.19 0)
(423.467 -27.7454 0)
(432.927 -28.5697 0)
(440.627 -29.2241 0)
(445.74 -29.5806 0)
(447.295 -29.8393 0)
(444.502 -29.7635 0)
(436.973 -29.4553 0)
(425.329 -29.1678 0)
(411.383 -29.1831 0)
(398.639 -28.3193 0)
(389.084 -29.7645 0)
(384.857 -29.2418 0)
(388.525 -24.9903 0)
(399.485 -18.8388 0)
(418.107 -11.842 0)
(447.157 -7.52086 0)
(493.584 -5.18498 0)
(582.477 -3.81038 0)
(728.773 -1.87681 0)
(904.431 -0.514114 0)
(735.623 -0.288482 0)
(319.468 -1.87315 0)
(200.93 -1.96419 0)
(200.405 -1.53148 0)
(202.256 -0.974333 0)
(204.255 -0.388819 0)
(205.995 0.112595 0)
(207.555 0.452524 0)
(208.727 0.565039 0)
(209.324 0.421072 0)
(209.515 0.293906 0)
(209.51 0.210953 0)
(209.435 0.1499 0)
(209.309 0.0863209 0)
(209.096 0.0376716 0)
(208.795 0.00774187 0)
(208.441 -0.000741696 0)
(208.077 -0.00198607 0)
(2.88172 8.34753 0)
(8.14364 8.14364 0)
(14.0466 7.95088 0)
(20.1752 8.43387 0)
(25.8839 8.63671 0)
(31.307 8.61795 0)
(36.4421 8.49161 0)
(41.2744 8.36474 0)
(45.73 8.25407 0)
(49.7094 8.09081 0)
(53.149 7.87842 0)
(56.0397 7.69158 0)
(58.4169 7.59243 0)
(60.3453 7.58199 0)
(61.8822 7.66007 0)
(63.0799 7.75346 0)
(64.0263 7.82872 0)
(64.7559 7.94501 0)
(65.2926 8.04003 0)
(65.6787 8.12655 0)
(65.9458 8.20496 0)
(66.1345 8.27662 0)
(66.2829 8.36167 0)
(66.433 8.47315 0)
(66.6381 8.59298 0)
(66.9318 8.71218 0)
(67.3374 8.82371 0)
(67.8867 8.90868 0)
(68.5969 8.98896 0)
(69.4985 9.024 0)
(70.6121 9.06821 0)
(71.9467 9.08598 0)
(73.5177 9.11083 0)
(75.3186 9.1383 0)
(77.3526 9.14957 0)
(79.6192 9.16877 0)
(82.0946 9.21519 0)
(84.7472 9.28875 0)
(87.5529 9.39007 0)
(90.4906 9.5286 0)
(93.5387 9.69652 0)
(96.6844 9.87091 0)
(99.9265 10.0272 0)
(103.272 10.1545 0)
(106.728 10.2545 0)
(110.3 10.3329 0)
(113.984 10.3953 0)
(117.772 10.444 0)
(121.653 10.4797 0)
(125.618 10.4988 0)
(129.66 10.4998 0)
(133.777 10.4919 0)
(137.964 10.4924 0)
(142.205 10.5041 0)
(146.477 10.5217 0)
(150.757 10.5344 0)
(155.027 10.5347 0)
(159.271 10.5253 0)
(163.473 10.5205 0)
(167.615 10.5392 0)
(171.672 10.5907 0)
(175.621 10.6709 0)
(179.432 10.7632 0)
(183.078 10.8504 0)
(186.53 10.9198 0)
(189.755 10.9642 0)
(192.724 10.9814 0)
(195.403 10.9727 0)
(197.762 10.9454 0)
(199.759 10.8995 0)
(201.343 10.843 0)
(202.442 10.8401 0)
(202.969 10.8953 0)
(202.9 10.9548 0)
(202.42 10.9707 0)
(201.683 11.0471 0)
(200.745 11.1667 0)
(199.617 11.2969 0)
(198.002 11.5637 0)
(195.05 11.8705 0)
(190.139 12.3364 0)
(184.392 12.0332 0)
(179.953 12.0139 0)
(178.223 12.8254 0)
(178.093 13.2137 0)
(178.089 13.0225 0)
(177.715 12.6174 0)
(176.956 12.3941 0)
(175.984 12.3349 0)
(174.944 12.2202 0)
(173.959 12.0556 0)
(173.122 11.9792 0)
(172.463 12.0477 0)
(172.03 12.1933 0)
(171.965 12.2655 0)
(172.37 12.2132 0)
(173.321 12.0629 0)
(174.914 11.8372 0)
(177.207 11.6445 0)
(180.227 11.5289 0)
(183.97 11.4459 0)
(188.413 11.4287 0)
(193.525 11.4297 0)
(199.217 11.4813 0)
(205.501 11.5035 0)
(212.374 11.4595 0)
(219.714 11.4566 0)
(227.456 11.5072 0)
(235.647 11.4835 0)
(244.273 11.3592 0)
(253.242 11.2232 0)
(262.508 11.1946 0)
(272.046 11.2445 0)
(281.886 11.2179 0)
(292.096 11.0909 0)
(302.61 10.9721 0)
(313.371 10.838 0)
(324.365 10.7785 0)
(335.471 10.8726 0)
(346.652 10.9851 0)
(357.981 11.1092 0)
(369.43 11.2457 0)
(380.998 11.2687 0)
(392.686 11.3477 0)
(404.385 11.4398 0)
(416.072 11.363 0)
(427.67 11.2559 0)
(438.865 11.086 0)
(449.327 10.8714 0)
(458.545 10.8442 0)
(465.775 10.8619 0)
(470.288 10.943 0)
(471.208 11.1044 0)
(467.765 11.2536 0)
(459.735 11.3665 0)
(447.827 11.4993 0)
(433.681 11.6419 0)
(420.661 11.5854 0)
(410.218 11.6503 0)
(402.341 11.9544 0)
(401.452 11.6418 0)
(409.693 10.9196 0)
(427.877 9.46231 0)
(456.822 8.36058 0)
(503.122 8.58359 0)
(592.618 8.25091 0)
(738.433 9.68793 0)
(910.096 11.2895 0)
(737.299 7.87863 0)
(319.9 3.55394 0)
(204.486 2.36044 0)
(203.608 2.23369 0)
(204.902 2.11731 0)
(206.29 2.00799 0)
(207.379 1.89332 0)
(208.185 1.70326 0)
(208.743 1.36541 0)
(209.171 1.03196 0)
(209.42 0.734337 0)
(209.466 0.533996 0)
(209.391 0.406289 0)
(209.264 0.282687 0)
(209.064 0.168911 0)
(208.795 0.0806674 0)
(208.483 0.0256452 0)
(208.14 0.000534629 0)
(2.81337 13.8619 0)
(7.95088 14.0466 0)
(12.9627 12.9627 0)
(18.5153 13.2369 0)
(23.9919 13.5329 0)
(29.3205 13.622 0)
(34.431 13.5883 0)
(39.2754 13.5723 0)
(43.7534 13.6259 0)
(47.7339 13.6485 0)
(51.1241 13.5954 0)
(53.9082 13.5177 0)
(56.1429 13.4717 0)
(57.9244 13.4635 0)
(59.3329 13.5347 0)
(60.4408 13.5936 0)
(61.3297 13.6275 0)
(62.019 13.7476 0)
(62.5393 13.8516 0)
(62.923 13.9636 0)
(63.2004 14.0808 0)
(63.4147 14.2031 0)
(63.6033 14.3518 0)
(63.8107 14.5345 0)
(64.0861 14.7378 0)
(64.4588 14.956 0)
(64.9524 15.176 0)
(65.598 15.3651 0)
(66.4023 15.5565 0)
(67.4 15.6793 0)
(68.5946 15.8248 0)
(69.9974 15.9334 0)
(71.6133 16.0553 0)
(73.4354 16.1832 0)
(75.4663 16.2814 0)
(77.6985 16.3873 0)
(80.107 16.531 0)
(82.6659 16.7057 0)
(85.3594 16.9032 0)
(88.1749 17.1367 0)
(91.1032 17.3977 0)
(94.1432 17.6582 0)
(97.3008 17.8873 0)
(100.585 18.073 0)
(104 18.2203 0)
(107.548 18.3403 0)
(111.22 18.4456 0)
(115.006 18.5428 0)
(118.888 18.6326 0)
(122.857 18.7069 0)
(126.906 18.7593 0)
(131.03 18.7958 0)
(135.22 18.8303 0)
(139.458 18.8783 0)
(143.722 18.9366 0)
(147.994 18.9905 0)
(152.252 19.0322 0)
(156.475 19.0674 0)
(160.643 19.1156 0)
(164.731 19.201 0)
(168.717 19.3348 0)
(172.583 19.5099 0)
(176.306 19.7011 0)
(179.868 19.8801 0)
(183.244 20.028 0)
(186.405 20.1377 0)
(189.313 20.2097 0)
(191.934 20.2506 0)
(194.223 20.2716 0)
(196.129 20.2722 0)
(197.608 20.2551 0)
(198.63 20.2461 0)
(199.065 20.2933 0)
(198.874 20.3192 0)
(198.319 20.3521 0)
(197.528 20.3753 0)
(196.469 20.3943 0)
(195.036 20.5882 0)
(193.068 21.2469 0)
(190.753 22.5446 0)
(188.134 23.3729 0)
(186.171 22.059 0)
(184.348 20.1066 0)
(182.275 19.8095 0)
(180.63 20.641 0)
(178.523 21.2372 0)
(176.248 21.3322 0)
(174.214 21.2707 0)
(172.555 21.2868 0)
(171.233 21.3287 0)
(170.205 21.3174 0)
(169.462 21.3588 0)
(168.96 21.5576 0)
(168.718 21.818 0)
(168.861 21.9372 0)
(169.459 21.9367 0)
(170.578 21.8165 0)
(172.293 21.5871 0)
(174.649 21.3894 0)
(177.681 21.2306 0)
(181.398 21.1276 0)
(185.786 21.049 0)
(190.823 21.0279 0)
(196.453 21.0516 0)
(202.682 20.9881 0)
(209.466 20.9091 0)
(216.709 20.9332 0)
(224.384 20.9617 0)
(232.507 20.8557 0)
(241.031 20.6911 0)
(249.879 20.5395 0)
(259.034 20.4698 0)
(268.502 20.4637 0)
(278.308 20.299 0)
(288.453 20.0448 0)
(298.858 19.8805 0)
(309.475 19.6988 0)
(320.279 19.6393 0)
(331.205 19.7989 0)
(342.271 19.9063 0)
(353.524 19.999 0)
(364.942 20.1317 0)
(376.525 20.1068 0)
(388.246 20.1595 0)
(400.023 20.2449 0)
(411.787 20.0865 0)
(423.377 19.9454 0)
(434.486 19.8005 0)
(444.755 19.5803 0)
(453.697 19.6152 0)
(460.671 19.6746 0)
(464.946 19.7368 0)
(465.656 19.8808 0)
(462.036 19.9475 0)
(453.826 19.8606 0)
(441.718 19.8935 0)
(427.443 20.0751 0)
(414.297 19.9042 0)
(404.208 20.5927 0)
(398.531 21.4357 0)
(401.309 20.5209 0)
(412.246 18.5827 0)
(431.07 16.7418 0)
(459.417 15.8557 0)
(504.802 15.708 0)
(593.284 15.71 0)
(739.861 15.9044 0)
(911.249 18.2287 0)
(730.854 13.0677 0)
(314.331 6.37398 0)
(203.153 4.62676 0)
(202.52 4.46925 0)
(203.983 4.27335 0)
(205.504 3.98304 0)
(206.654 3.54812 0)
(207.515 2.95913 0)
(208.194 2.31108 0)
(208.719 1.74262 0)
(209.08 1.26126 0)
(209.239 0.896166 0)
(209.218 0.65009 0)
(209.114 0.462403 0)
(208.952 0.297799 0)
(208.722 0.165845 0)
(208.438 0.0727891 0)
(208.116 0.0184695 0)
(2.02528 18.9592 0)
(8.43387 20.1752 0)
(13.2369 18.5153 0)
(18.5099 18.5099 0)
(23.6874 18.7709 0)
(28.7449 18.8213 0)
(33.5983 18.7153 0)
(38.2088 18.615 0)
(42.5007 18.6445 0)
(46.3576 18.7228 0)
(49.6891 18.7753 0)
(52.4697 18.8142 0)
(54.7376 18.8665 0)
(56.5664 18.9224 0)
(58.0138 19.0419 0)
(59.1511 19.1032 0)
(60.0508 19.1267 0)
(60.7288 19.2485 0)
(61.2325 19.3441 0)
(61.5926 19.4554 0)
(61.8511 19.574 0)
(62.0634 19.7057 0)
(62.271 19.8774 0)
(62.5186 20.0917 0)
(62.8463 20.3359 0)
(63.2816 20.6059 0)
(63.8479 20.8852 0)
(64.5745 21.1325 0)
(65.4569 21.3932 0)
(66.5329 21.568 0)
(67.7888 21.7875 0)
(69.241 21.9664 0)
(70.887 22.1737 0)
(72.7248 22.395 0)
(74.7607 22.5838 0)
(76.9848 22.7915 0)
(79.3743 23.0535 0)
(81.9081 23.3537 0)
(84.573 23.6732 0)
(87.3582 24.0234 0)
(90.2598 24.3899 0)
(93.2811 24.7388 0)
(96.4295 25.0347 0)
(99.7115 25.267 0)
(103.13 25.4442 0)
(106.686 25.5828 0)
(110.372 25.7035 0)
(114.179 25.8181 0)
(118.094 25.9301 0)
(122.104 26.0297 0)
(126.201 26.1083 0)
(130.372 26.171 0)
(134.6 26.2379 0)
(138.868 26.3224 0)
(143.156 26.4167 0)
(147.446 26.5047 0)
(151.717 26.5814 0)
(155.947 26.6585 0)
(160.112 26.7604 0)
(164.19 26.9141 0)
(168.163 27.1283 0)
(172.018 27.3901 0)
(175.741 27.6655 0)
(179.318 27.9183 0)
(182.721 28.1272 0)
(185.915 28.2882 0)
(188.858 28.4063 0)
(191.507 28.4932 0)
(193.811 28.5607 0)
(195.712 28.611 0)
(197.171 28.6622 0)
(198.159 28.7185 0)
(198.492 28.7857 0)
(198.15 28.8691 0)
(197.43 28.9483 0)
(196.402 28.948 0)
(195.059 28.9743 0)
(193.389 29.2634 0)
(191.533 30.1317 0)
(189.906 31.4043 0)
(188.15 31.7975 0)
(186.39 30.8291 0)
(183.936 29.3406 0)
(180.934 28.8575 0)
(178.464 29.3399 0)
(176.485 29.9753 0)
(174.648 30.1542 0)
(172.877 30.0097 0)
(171.217 29.7907 0)
(169.794 29.5889 0)
(168.696 29.496 0)
(167.943 29.5742 0)
(167.501 29.7841 0)
(167.39 30.071 0)
(167.708 30.1997 0)
(168.498 30.2394 0)
(169.818 30.1686 0)
(171.717 29.9938 0)
(174.215 29.8614 0)
(177.346 29.7316 0)
(181.119 29.6747 0)
(185.523 29.6024 0)
(190.545 29.6057 0)
(196.148 29.6275 0)
(202.338 29.5221 0)
(209.06 29.4533 0)
(216.239 29.512 0)
(223.869 29.5194 0)
(231.945 29.3673 0)
(240.4 29.2126 0)
(249.168 29.086 0)
(258.239 29.0077 0)
(267.616 28.957 0)
(277.313 28.6901 0)
(287.307 28.3721 0)
(297.527 28.2039 0)
(307.956 28.017 0)
(318.58 27.9919 0)
(329.369 28.1932 0)
(340.368 28.2728 0)
(351.591 28.3329 0)
(363.01 28.4418 0)
(374.615 28.3705 0)
(386.353 28.3948 0)
(398.153 28.4481 0)
(409.926 28.247 0)
(421.477 28.1361 0)
(432.516 28.0755 0)
(442.681 27.9596 0)
(451.497 28.1273 0)
(458.388 28.2795 0)
(462.608 28.4042 0)
(463.287 28.5934 0)
(459.658 28.6809 0)
(451.437 28.5656 0)
(439.33 28.6029 0)
(425.098 28.7779 0)
(411.953 28.5502 0)
(401.905 29.0553 0)
(396.534 29.1956 0)
(399.533 27.6247 0)
(410.487 25.4773 0)
(429.417 23.6219 0)
(458.172 22.3018 0)
(504.202 21.7161 0)
(593.41 21.9953 0)
(741.38 22.2206 0)
(911.982 23.5029 0)
(720.01 16.6917 0)
(306.756 8.39601 0)
(202.278 6.43989 0)
(201.857 6.17781 0)
(203.361 5.81691 0)
(204.815 5.33561 0)
(205.901 4.72798 0)
(206.772 4.01697 0)
(207.496 3.27503 0)
(208.093 2.5605 0)
(208.555 1.91127 0)
(208.848 1.36598 0)
(208.945 0.958858 0)
(208.888 0.678348 0)
(208.766 0.461009 0)
(208.582 0.28399 0)
(208.343 0.152246 0)
(208.062 0.06432 0)
(1.12965 23.5806 0)
(8.63671 25.8839 0)
(13.5329 23.9919 0)
(18.7709 23.6874 0)
(23.9088 23.9088 0)
(28.8965 23.9578 0)
(33.6442 23.8542 0)
(38.1095 23.7406 0)
(42.2359 23.7713 0)
(45.9396 23.8753 0)
(49.1623 23.968 0)
(51.8957 24.0506 0)
(54.1771 24.1387 0)
(56.0661 24.2194 0)
(57.598 24.3662 0)
(58.835 24.4209 0)
(59.8272 24.4497 0)
(60.5831 24.5837 0)
(61.1622 24.6904 0)
(61.5918 24.826 0)
(61.9191 24.9685 0)
(62.1934 25.128 0)
(62.4531 25.3329 0)
(62.7459 25.5832 0)
(63.1124 25.8691 0)
(63.58 26.1881 0)
(64.1721 26.5231 0)
(64.9174 26.8291 0)
(65.8014 27.1623 0)
(66.8696 27.4015 0)
(68.0887 27.7109 0)
(69.4884 27.9796 0)
(71.0571 28.2912 0)
(72.802 28.6182 0)
(74.7356 28.9077 0)
(76.8486 29.2225 0)
(79.1274 29.5975 0)
(81.5622 30.01 0)
(84.1471 30.4341 0)
(86.8753 30.8797 0)
(89.7472 31.3277 0)
(92.7656 31.743 0)
(95.9317 32.0907 0)
(99.2419 32.3625 0)
(102.689 32.5686 0)
(106.266 32.7285 0)
(109.963 32.8661 0)
(113.769 32.9967 0)
(117.675 33.1257 0)
(121.671 33.2446 0)
(125.746 33.3456 0)
(129.889 33.4358 0)
(134.083 33.5367 0)
(138.311 33.6591 0)
(142.554 33.7919 0)
(146.793 33.9177 0)
(151.006 34.034 0)
(155.171 34.1569 0)
(159.263 34.3134 0)
(163.265 34.5304 0)
(167.166 34.8125 0)
(170.958 35.1421 0)
(174.637 35.4801 0)
(178.19 35.7883 0)
(181.591 36.0456 0)
(184.802 36.2509 0)
(187.779 36.4118 0)
(190.474 36.5434 0)
(192.837 36.6622 0)
(194.814 36.7762 0)
(196.365 36.8994 0)
(197.454 37.0203 0)
(197.912 37.1476 0)
(197.659 37.3242 0)
(196.973 37.4805 0)
(195.95 37.5305 0)
(194.582 37.6222 0)
(192.907 37.8874 0)
(191.17 38.5608 0)
(189.746 39.474 0)
(188.321 39.7666 0)
(186.792 39.2408 0)
(184.809 38.3264 0)
(182.351 37.8467 0)
(180.003 38.0366 0)
(177.974 38.4532 0)
(176.079 38.5849 0)
(174.224 38.4108 0)
(172.443 38.1372 0)
(170.833 37.9276 0)
(169.495 37.8726 0)
(168.503 37.9701 0)
(167.879 38.1616 0)
(167.611 38.3756 0)
(167.768 38.4569 0)
(168.41 38.5017 0)
(169.609 38.4583 0)
(171.4 38.3365 0)
(173.791 38.2648 0)
(176.822 38.1605 0)
(180.496 38.1434 0)
(184.806 38.0752 0)
(189.74 38.0886 0)
(195.272 38.0879 0)
(201.394 37.9436 0)
(208.04 37.8767 0)
(215.163 37.9288 0)
(222.767 37.8846 0)
(230.82 37.6893 0)
(239.245 37.5432 0)
(247.996 37.4262 0)
(257.066 37.334 0)
(266.441 37.2463 0)
(276.114 36.9197 0)
(286.037 36.5924 0)
(296.158 36.437 0)
(306.492 36.2428 0)
(317.036 36.2235 0)
(327.796 36.3966 0)
(338.821 36.4019 0)
(350.088 36.4089 0)
(361.567 36.4716 0)
(373.234 36.3621 0)
(385.017 36.3697 0)
(396.85 36.4026 0)
(408.625 36.2138 0)
(420.131 36.1754 0)
(431.112 36.2116 0)
(441.222 36.2091 0)
(450.005 36.4613 0)
(456.924 36.6528 0)
(461.21 36.8027 0)
(461.994 36.9803 0)
(458.496 37.0539 0)
(450.406 36.9108 0)
(438.442 36.9204 0)
(424.387 37.0548 0)
(411.457 36.7735 0)
(401.512 37.0913 0)
(396.334 36.6459 0)
(399.407 34.6891 0)
(410.519 32.0608 0)
(429.823 29.5883 0)
(459.18 27.3737 0)
(506.124 25.7234 0)
(596.346 26.0805 0)
(745.405 27.0652 0)
(913.258 27.7525 0)
(709.365 20.0209 0)
(299.705 10.5067 0)
(201.733 8.32643 0)
(201.426 7.95537 0)
(202.849 7.41444 0)
(204.159 6.72261 0)
(205.139 5.93561 0)
(205.963 5.09646 0)
(206.691 4.24758 0)
(207.331 3.41884 0)
(207.87 2.63815 0)
(208.281 1.93975 0)
(208.529 1.36717 0)
(208.593 0.950017 0)
(208.522 0.663374 0)
(208.394 0.442741 0)
(208.209 0.26804 0)
(207.976 0.140877 0)
(0.288698 27.9122 0)
(8.61795 31.307 0)
(13.622 29.3205 0)
(18.8213 28.7449 0)
(23.9578 28.8965 0)
(28.9397 28.9397 0)
(33.6787 28.8471 0)
(38.12 28.7302 0)
(42.2101 28.7567 0)
(45.8789 28.8644 0)
(49.0826 28.9672 0)
(51.8206 29.0613 0)
(54.1301 29.1546 0)
(56.0615 29.2367 0)
(57.64 29.3903 0)
(58.9284 29.4259 0)
(59.9625 29.4679 0)
(60.7511 29.6179 0)
(61.3644 29.7467 0)
(61.8249 29.9165 0)
(62.1854 30.0929 0)
(62.4893 30.2934 0)
(62.7753 30.5449 0)
(63.0916 30.8463 0)
(63.4773 31.1882 0)
(63.9592 31.5681 0)
(64.5575 31.9709 0)
(65.3029 32.3506 0)
(66.1705 32.7706 0)
(67.2189 33.0945 0)
(68.3945 33.5113 0)
(69.7489 33.8862 0)
(71.2603 34.3162 0)
(72.9483 34.7569 0)
(74.8279 35.1558 0)
(76.8872 35.5829 0)
(79.1201 36.067 0)
(81.5238 36.582 0)
(84.0957 37.0967 0)
(86.83 37.6203 0)
(89.7282 38.1302 0)
(92.7896 38.5959 0)
(96.0078 38.9859 0)
(99.3695 39.2968 0)
(102.86 39.5392 0)
(106.465 39.7331 0)
(110.171 39.9031 0)
(113.97 40.0647 0)
(117.853 40.2247 0)
(121.814 40.3757 0)
(125.846 40.5125 0)
(129.936 40.6437 0)
(134.073 40.7903 0)
(138.241 40.9607 0)
(142.424 41.1419 0)
(146.603 41.3164 0)
(150.754 41.4843 0)
(154.855 41.6639 0)
(158.883 41.8822 0)
(162.823 42.1637 0)
(166.667 42.508 0)
(170.415 42.8946 0)
(174.061 43.2822 0)
(177.593 43.6335 0)
(180.985 43.9289 0)
(184.197 44.1692 0)
(187.182 44.362 0)
(189.894 44.5256 0)
(192.287 44.6826 0)
(194.316 44.8443 0)
(195.939 45.0209 0)
(197.109 45.2034 0)
(197.695 45.3917 0)
(197.572 45.6418 0)
(196.965 45.8713 0)
(196.031 46.0038 0)
(194.78 46.173 0)
(193.227 46.3829 0)
(191.568 46.8218 0)
(190.033 47.3766 0)
(188.546 47.5806 0)
(186.953 47.3384 0)
(185.095 46.9043 0)
(182.953 46.6183 0)
(180.749 46.7149 0)
(178.658 46.9333 0)
(176.653 46.9743 0)
(174.715 46.7878 0)
(172.879 46.5409 0)
(171.22 46.3878 0)
(169.821 46.3599 0)
(168.758 46.4433 0)
(168.085 46.5972 0)
(167.77 46.7282 0)
(167.857 46.7592 0)
(168.427 46.8093 0)
(169.571 46.7877 0)
(171.32 46.719 0)
(173.675 46.699 0)
(176.683 46.6128 0)
(180.336 46.63 0)
(184.633 46.5655 0)
(189.552 46.5828 0)
(195.075 46.5532 0)
(201.177 46.3857 0)
(207.789 46.3209 0)
(214.889 46.3399 0)
(222.483 46.2299 0)
(230.52 45.9992 0)
(238.926 45.8553 0)
(247.679 45.7232 0)
(256.769 45.6034 0)
(266.17 45.4807 0)
(275.86 45.127 0)
(285.778 44.8273 0)
(295.892 44.6898 0)
(306.23 44.4827 0)
(316.787 44.4436 0)
(327.588 44.5393 0)
(338.665 44.4492 0)
(349.971 44.3984 0)
(361.475 44.4074 0)
(373.153 44.2728 0)
(384.928 44.2784 0)
(396.742 44.3097 0)
(408.477 44.1763 0)
(419.926 44.2356 0)
(430.864 44.3652 0)
(440.96 44.4581 0)
(449.76 44.748 0)
(456.717 44.9421 0)
(461.045 45.0928 0)
(461.868 45.2345 0)
(458.385 45.2755 0)
(450.287 45.1159 0)
(438.306 45.1103 0)
(424.265 45.2384 0)
(411.5 44.8901 0)
(401.734 45.0087 0)
(396.856 43.9833 0)
(400.085 41.5318 0)
(411.254 38.3248 0)
(430.59 35.1315 0)
(460.149 32.2011 0)
(507.764 30.0464 0)
(599.477 30.732 0)
(749.843 33.5286 0)
(915.187 34.2795 0)
(697.044 24.7617 0)
(291.661 12.7613 0)
(201.073 10.1009 0)
(200.867 9.59887 0)
(202.178 8.8775 0)
(203.356 8.02732 0)
(204.264 7.12078 0)
(205.063 6.18288 0)
(205.798 5.24138 0)
(206.469 4.31993 0)
(207.065 3.43864 0)
(207.569 2.6227 0)
(207.953 1.90737 0)
(208.179 1.33332 0)
(208.232 0.921488 0)
(208.158 0.639779 0)
(208.032 0.42407 0)
(207.851 0.255752 0)
(-0.465305 31.9816 0)
(8.49161 36.4421 0)
(13.5883 34.431 0)
(18.7153 33.5983 0)
(23.8542 33.6442 0)
(28.8471 33.6787 0)
(33.607 33.607 0)
(38.0622 33.5045 0)
(42.1524 33.5348 0)
(45.8147 33.6388 0)
(49.0163 33.7363 0)
(51.7624 33.8241 0)
(54.0892 33.9077 0)
(56.0388 33.9859 0)
(57.6336 34.1425 0)
(58.9441 34.1673 0)
(59.9957 34.2448 0)
(60.8045 34.4244 0)
(61.4462 34.5929 0)
(61.9358 34.8116 0)
(62.3328 35.0379 0)
(62.6762 35.2935 0)
(63.006 35.6012 0)
(63.3669 35.9613 0)
(63.7955 36.3654 0)
(64.3181 36.8097 0)
(64.9499 37.2836 0)
(65.7232 37.7413 0)
(66.6045 38.2509 0)
(67.6646 38.6674 0)
(68.831 39.1953 0)
(70.1788 39.6787 0)
(71.6736 40.2275 0)
(73.3478 40.7784 0)
(75.2141 41.2862 0)
(77.2577 41.8225 0)
(79.4784 42.4064 0)
(81.876 43.0116 0)
(84.4488 43.6045 0)
(87.1897 44.1936 0)
(90.0997 44.7553 0)
(93.1737 45.2674 0)
(96.4005 45.7036 0)
(99.7626 46.0641 0)
(103.243 46.3579 0)
(106.826 46.6027 0)
(110.502 46.8209 0)
(114.264 47.0268 0)
(118.108 47.2277 0)
(122.03 47.4182 0)
(126.025 47.597 0)
(130.082 47.7738 0)
(134.189 47.9691 0)
(138.332 48.1894 0)
(142.495 48.422 0)
(146.656 48.6504 0)
(150.789 48.8762 0)
(154.871 49.118 0)
(158.879 49.3994 0)
(162.802 49.7413 0)
(166.632 50.1392 0)
(170.37 50.5731 0)
(174.009 51.0024 0)
(177.536 51.3941 0)
(180.922 51.7299 0)
(184.126 52.011 0)
(187.1 52.241 0)
(189.8 52.4384 0)
(192.187 52.6284 0)
(194.227 52.8257 0)
(195.878 53.038 0)
(197.09 53.2662 0)
(197.756 53.5105 0)
(197.735 53.8084 0)
(197.193 54.0861 0)
(196.329 54.294 0)
(195.19 54.5262 0)
(193.765 54.7231 0)
(192.172 55.0227 0)
(190.543 55.3311 0)
(188.894 55.4708 0)
(187.145 55.3941 0)
(185.249 55.2274 0)
(183.216 55.1054 0)
(181.129 55.1746 0)
(179.092 55.2672 0)
(177.134 55.2483 0)
(175.266 55.0851 0)
(173.513 54.9189 0)
(171.928 54.8455 0)
(170.57 54.8387 0)
(169.522 54.8967 0)
(168.848 54.9984 0)
(168.508 55.0643 0)
(168.542 55.0713 0)
(169.044 55.1356 0)
(170.125 55.1274 0)
(171.814 55.1026 0)
(174.119 55.1163 0)
(177.093 55.0351 0)
(180.718 55.0746 0)
(184.996 55.007 0)
(189.9 55.0165 0)
(195.412 54.9512 0)
(201.494 54.7702 0)
(208.076 54.6991 0)
(215.155 54.664 0)
(222.728 54.4845 0)
(230.735 54.2233 0)
(239.113 54.0674 0)
(247.855 53.8917 0)
(256.95 53.727 0)
(266.362 53.5624 0)
(276.065 53.191 0)
(285.996 52.9177 0)
(296.139 52.776 0)
(306.517 52.5405 0)
(317.112 52.4614 0)
(327.948 52.4681 0)
(339.033 52.307 0)
(350.308 52.2272 0)
(361.76 52.2078 0)
(373.37 52.0771 0)
(385.076 52.099 0)
(396.831 52.1458 0)
(408.519 52.0768 0)
(419.954 52.217 0)
(430.925 52.407 0)
(441.104 52.5512 0)
(450.02 52.8468 0)
(457.077 53.0415 0)
(461.482 53.1959 0)
(462.357 53.3258 0)
(458.888 53.3449 0)
(450.79 53.1802 0)
(438.797 53.1725 0)
(424.756 53.31 0)
(412.148 52.8361 0)
(402.491 52.7943 0)
(397.815 51.3434 0)
(401.134 48.386 0)
(412.334 44.6619 0)
(431.716 40.8842 0)
(461.469 37.6035 0)
(509.856 35.4348 0)
(603.712 35.2577 0)
(755.626 40.1048 0)
(917.534 41.3505 0)
(681.575 29.6294 0)
(281.94 14.8561 0)
(200.234 11.8015 0)
(200.146 11.1665 0)
(201.349 10.286 0)
(202.421 9.31008 0)
(203.285 8.30123 0)
(204.077 7.27379 0)
(204.824 6.25237 0)
(205.525 5.25565 0)
(206.17 4.29707 0)
(206.748 3.39371 0)
(207.239 2.56963 0)
(207.612 1.85698 0)
(207.83 1.29212 0)
(207.877 0.891172 0)
(207.805 0.617592 0)
(207.681 0.408859 0)
(-1.09878 35.7829 0)
(8.36474 41.2744 0)
(13.5723 39.2754 0)
(18.615 38.2088 0)
(23.7406 38.1095 0)
(28.7302 38.12 0)
(33.5045 38.0622 0)
(37.9796 37.9796 0)
(42.0836 38.0177 0)
(45.7559 38.1134 0)
(48.9703 38.1965 0)
(51.7362 38.2682 0)
(54.088 38.337 0)
(56.0613 38.4147 0)
(57.6828 38.5751 0)
(59.0286 38.6033 0)
(60.1108 38.7326 0)
(60.9563 38.9482 0)
(61.6379 39.1651 0)
(62.1664 39.4382 0)
(62.6067 39.7225 0)
(62.9928 40.0426 0)
(63.3674 40.4153 0)
(63.7719 40.8423 0)
(64.241 41.3164 0)
(64.8016 41.8322 0)
(65.4637 42.3844 0)
(66.2628 42.928 0)
(67.1578 43.5329 0)
(68.2312 44.0517 0)
(69.3936 44.6952 0)
(70.7435 45.2903 0)
(72.2316 45.9591 0)
(73.9041 46.6199 0)
(75.7663 47.2401 0)
(77.8015 47.8868 0)
(80.0143 48.5684 0)
(82.4036 49.2626 0)
(84.9677 49.9334 0)
(87.6981 50.59 0)
(90.5962 51.2081 0)
(93.6545 51.7747 0)
(96.8621 52.267 0)
(100.202 52.687 0)
(103.66 53.0401 0)
(107.223 53.3413 0)
(110.881 53.6108 0)
(114.629 53.8621 0)
(118.461 54.1037 0)
(122.375 54.3334 0)
(126.361 54.5543 0)
(130.41 54.777 0)
(134.509 55.0213 0)
(138.644 55.2924 0)
(142.798 55.5792 0)
(146.948 55.867 0)
(151.072 56.1577 0)
(155.143 56.4676 0)
(159.143 56.8147 0)
(163.06 57.2157 0)
(166.888 57.6631 0)
(170.624 58.1406 0)
(174.26 58.6111 0)
(177.779 59.0474 0)
(181.152 59.4311 0)
(184.342 59.7635 0)
(187.303 60.0419 0)
(189.994 60.2816 0)
(192.38 60.5055 0)
(194.43 60.7324 0)
(196.106 60.9712 0)
(197.358 61.2307 0)
(198.092 61.5098 0)
(198.154 61.8371 0)
(197.664 62.1498 0)
(196.848 62.4125 0)
(195.783 62.6842 0)
(194.458 62.8947 0)
(192.941 63.1276 0)
(191.298 63.31 0)
(189.565 63.4171 0)
(187.729 63.4231 0)
(185.795 63.3772 0)
(183.789 63.3485 0)
(181.754 63.4058 0)
(179.756 63.441 0)
(177.839 63.408 0)
(176.018 63.3062 0)
(174.309 63.2402 0)
(172.75 63.2377 0)
(171.394 63.2492 0)
(170.336 63.2896 0)
(169.644 63.361 0)
(169.274 63.398 0)
(169.261 63.412 0)
(169.708 63.4956 0)
(170.744 63.4889 0)
(172.393 63.4937 0)
(174.673 63.5199 0)
(177.633 63.4303 0)
(181.247 63.4777 0)
(185.519 63.3976 0)
(190.413 63.3862 0)
(195.916 63.2801 0)
(201.975 63.0897 0)
(208.53 62.9987 0)
(215.588 62.8983 0)
(223.132 62.6549 0)
(231.102 62.366 0)
(239.447 62.1838 0)
(248.167 61.9454 0)
(257.244 61.7273 0)
(266.638 61.5187 0)
(276.322 61.1338 0)
(286.241 60.8745 0)
(296.391 60.7125 0)
(306.777 60.4526 0)
(317.376 60.3375 0)
(328.21 60.2777 0)
(339.271 60.0886 0)
(350.511 60.0011 0)
(361.933 59.9666 0)
(373.52 59.8447 0)
(385.227 59.8721 0)
(397 59.9281 0)
(408.72 59.8992 0)
(420.214 60.0793 0)
(431.27 60.2942 0)
(441.558 60.4495 0)
(450.588 60.7387 0)
(457.721 60.9499 0)
(462.164 61.1142 0)
(463.045 61.2646 0)
(459.548 61.2727 0)
(451.409 61.1069 0)
(439.342 61.1192 0)
(425.21 61.2962 0)
(412.638 60.7214 0)
(402.89 60.663 0)
(398.362 58.9417 0)
(401.841 55.4847 0)
(413.23 51.2134 0)
(432.881 46.9396 0)
(463.106 43.5171 0)
(512.601 41.6355 0)
(609.019 41.5432 0)
(763.181 46.1154 0)
(918.421 47.2505 0)
(662.832 33.3858 0)
(271.208 16.5505 0)
(199.25 13.4267 0)
(199.276 12.6622 0)
(200.387 11.6512 0)
(201.381 10.5765 0)
(202.221 9.48284 0)
(203.015 8.37964 0)
(203.781 7.29055 0)
(204.513 6.23074 0)
(205.204 5.20888 0)
(205.844 4.2362 0)
(206.418 3.32898 0)
(206.906 2.50891 0)
(207.276 1.80548 0)
(207.488 1.25297 0)
(207.532 0.863867 0)
(207.461 0.598388 0)
(-1.6624 39.2618 0)
(8.25407 45.73 0)
(13.6259 43.7534 0)
(18.6445 42.5007 0)
(23.7713 42.2359 0)
(28.7567 42.2101 0)
(33.5348 42.1524 0)
(38.0177 42.0836 0)
(42.1242 42.1242 0)
(45.7967 42.2039 0)
(49.016 42.2674 0)
(51.7948 42.3228 0)
(54.1651 42.3861 0)
(56.1579 42.4782 0)
(57.8069 42.6518 0)
(59.1878 42.7074 0)
(60.2965 42.9039 0)
(61.1773 43.1656 0)
(61.8941 43.4436 0)
(62.4598 43.779 0)
(62.9409 44.1309 0)
(63.3676 44.5249 0)
(63.7869 44.9717 0)
(64.2384 45.4728 0)
(64.7536 46.0231 0)
(65.3591 46.6162 0)
(66.0597 47.2517 0)
(66.8937 47.8854 0)
(67.8135 48.588 0)
(68.9107 49.2144 0)
(70.0822 49.9737 0)
(71.4481 50.6801 0)
(72.9427 51.4675 0)
(74.6263 52.2368 0)
(76.4936 52.9721 0)
(78.5294 53.7302 0)
(80.7417 54.5089 0)
(83.1269 55.2929 0)
(85.6845 56.044 0)
(88.4046 56.772 0)
(91.2896 57.4517 0)
(94.3307 58.0792 0)
(97.5189 58.6327 0)
(100.839 59.1155 0)
(104.279 59.5289 0)
(107.828 59.8868 0)
(111.474 60.2077 0)
(115.212 60.5059 0)
(119.036 60.7913 0)
(122.939 61.0653 0)
(126.914 61.3343 0)
(130.948 61.6091 0)
(135.031 61.908 0)
(139.148 62.2347 0)
(143.285 62.5809 0)
(147.421 62.934 0)
(151.534 63.2951 0)
(155.599 63.677 0)
(159.602 64.0908 0)
(163.527 64.5501 0)
(167.368 65.0455 0)
(171.114 65.5667 0)
(174.756 66.0809 0)
(178.275 66.5674 0)
(181.643 67.005 0)
(184.829 67.3948 0)
(187.791 67.7275 0)
(190.49 68.0149 0)
(192.891 68.2737 0)
(194.963 68.5275 0)
(196.67 68.7877 0)
(197.965 69.0678 0)
(198.755 69.3683 0)
(198.886 69.7139 0)
(198.435 70.0526 0)
(197.648 70.3551 0)
(196.613 70.6566 0)
(195.332 70.8924 0)
(193.849 71.1091 0)
(192.199 71.2529 0)
(190.421 71.3541 0)
(188.537 71.403 0)
(186.57 71.4174 0)
(184.551 71.4484 0)
(182.524 71.5169 0)
(180.54 71.5482 0)
(178.64 71.5411 0)
(176.836 71.5091 0)
(175.137 71.5172 0)
(173.582 71.5547 0)
(172.227 71.5755 0)
(171.178 71.6098 0)
(170.497 71.6734 0)
(170.133 71.7074 0)
(170.115 71.7387 0)
(170.547 71.8327 0)
(171.565 71.8137 0)
(173.186 71.8353 0)
(175.443 71.8589 0)
(178.381 71.7542 0)
(181.965 71.7991 0)
(186.206 71.6997 0)
(191.066 71.6564 0)
(196.533 71.5067 0)
(202.547 71.3038 0)
(209.065 71.1747 0)
(216.092 71.0034 0)
(223.598 70.7026 0)
(231.526 70.3833 0)
(239.835 70.1634 0)
(248.526 69.8552 0)
(257.572 69.5833 0)
(266.936 69.3323 0)
(276.592 68.9353 0)
(286.499 68.6713 0)
(296.66 68.4758 0)
(307.063 68.1956 0)
(317.686 68.0397 0)
(328.552 67.9269 0)
(339.628 67.7307 0)
(350.882 67.6302 0)
(362.325 67.5825 0)
(373.926 67.4683 0)
(385.654 67.4915 0)
(397.448 67.5634 0)
(409.184 67.5657 0)
(420.705 67.7685 0)
(431.795 68.0081 0)
(442.123 68.1706 0)
(451.196 68.4638 0)
(458.341 68.7154 0)
(462.767 68.8975 0)
(463.608 69.0994 0)
(460.063 69.1194 0)
(451.884 68.9582 0)
(439.771 69.0001 0)
(425.598 69.2156 0)
(413.101 68.5776 0)
(403.253 68.5772 0)
(398.911 66.6136 0)
(402.575 62.7616 0)
(414.186 57.9427 0)
(434.098 53.2793 0)