/*--------------------------------*- C++ -*----------------------------------*\
  =========                 |
  \\      /  F ield         | OpenFOAM: The Open Source CFD Toolbox
   \\    /   O peration     | Website:  https://openfoam.org
    \\  /    A nd           | Version:  13
     \\/     M anipulation  |
\*---------------------------------------------------------------------------*/
FoamFile
{
    format      ascii;
    class       volVectorField;
    location    "0.0018";
    object      U;
}
// * * * * * * * * * * * * * * * * * * * * * * * * * * * * * * * * * * * * * //

dimensions      [0 1 -1 0 0 0 0];

internalField   nonuniform List<vector> 
33333
(
(3.52278e-13 2.69759e-13 0)
(4.12998e-13 2.15077e-13 0)
(2.96268e-13 3.15548e-13 0)
(3.27772e-13 3.45913e-13 0)
(2.74775e-13 3.34326e-13 0)
(2.23584e-13 3.77019e-13 0)
(2.73421e-13 4.68593e-13 0)
(5.95805e-14 3.56808e-13 0)
(-6.3511e-14 3.95644e-13 0)
(8.0249e-14 2.94494e-13 0)
(1.20159e-13 3.12548e-13 0)
(-1.63762e-14 2.81495e-13 0)
(-7.9701e-14 3.88871e-13 0)
(-1.49276e-13 2.80109e-13 0)
(-4.8414e-14 1.33502e-13 0)
(-1.34718e-13 3.91671e-14 0)
(-3.20833e-13 1.53388e-13 0)
(-1.42754e-13 1.42289e-13 0)
(-4.4048e-15 2.90843e-13 0)
(1.80528e-13 3.02428e-13 0)
(1.44429e-13 1.65021e-13 0)
(8.91385e-14 2.78581e-13 0)
(3.62531e-13 2.42007e-13 0)
(3.90156e-13 2.63084e-13 0)
(4.11242e-13 3.30979e-13 0)
(5.98618e-13 3.06857e-13 0)
(4.79892e-13 3.05953e-13 0)
(2.60759e-13 4.65868e-13 0)
(2.11067e-13 3.10238e-13 0)
(7.08333e-14 2.45073e-13 0)
(2.19323e-13 2.14336e-13 0)
(4.14429e-13 2.21324e-13 0)
(4.03009e-13 1.10777e-13 0)
(2.49451e-13 4.76209e-14 0)
(-2.36296e-14 1.34992e-13 0)
(-2.47687e-13 1.54419e-15 0)
(-5.14198e-13 -1.58863e-13 0)
(-5.92474e-13 5.40991e-15 0)
(-3.46529e-13 1.19169e-13 0)
(-2.456e-14 2.5362e-13 0)
(1.4055e-13 2.48547e-13 0)
(1.57697e-13 1.78091e-13 0)
(2.24089e-13 1.86753e-13 0)
(3.43628e-14 5.15548e-14 0)
(-9.10266e-14 3.58866e-13 0)
(5.33342e-14 4.38846e-13 0)
(4.11031e-14 4.61296e-13 0)
(1.14919e-13 3.90712e-13 0)
(-3.4254e-14 3.17124e-13 0)
(-1.40037e-13 4.23863e-13 0)
(-6.12513e-15 4.00391e-13 0)
(-1.22936e-13 2.61022e-13 0)
(-2.73907e-13 2.93656e-13 0)
(-1.03227e-13 3.55315e-13 0)
(-1.66974e-13 3.24111e-13 0)
(-2.4626e-13 3.25858e-13 0)
(-8.20348e-14 3.80039e-13 0)
(-1.97411e-13 2.65191e-13 0)
(-2.68283e-13 3.76713e-13 0)
(-1.72496e-13 3.41429e-13 0)
(-2.87801e-13 2.76107e-13 0)
(-2.91411e-13 2.58366e-13 0)
(-1.25315e-13 3.28283e-13 0)
(-3.57441e-14 3.42328e-13 0)
(-1.34473e-13 3.76251e-13 0)
(-2.57741e-13 4.39887e-13 0)
(-1.75858e-13 3.35903e-13 0)
(1.74126e-13 2.9403e-13 0)
(4.42273e-13 2.49975e-13 0)
(2.97767e-13 2.83708e-13 0)
(7.41407e-14 2.85143e-13 0)
(2.67915e-13 3.09703e-13 0)
(3.71641e-13 3.13508e-13 0)
(4.50871e-14 3.93399e-13 0)
(-1.52153e-13 1.90163e-13 0)
(1.11165e-13 1.54287e-13 0)
(2.00284e-13 6.15786e-14 0)
(-2.80188e-13 1.41159e-13 0)
(-5.95635e-13 2.31402e-13 0)
(-3.92458e-13 2.58143e-13 0)
(-2.7629e-13 3.54004e-13 0)
(-2.9631e-13 5.96381e-13 0)
(-3.41728e-13 4.09163e-13 0)
(-1.357e-13 2.75037e-13 0)
(1.53291e-13 2.08616e-13 0)
(-1.42284e-13 1.92067e-13 0)
(-5.05155e-13 2.49543e-13 0)
(-6.75468e-14 2.48811e-13 0)
(1.25704e-13 1.29844e-13 0)
(6.97115e-14 2.60278e-13 0)
(1.80657e-14 2.0924e-14 0)
(-1.00805e-13 1.67949e-14 0)
(1.0625e-13 1.42605e-13 0)
(5.97327e-13 2.14155e-13 0)
(5.69882e-13 2.47892e-13 0)
(1.04298e-13 1.92182e-13 0)
(-8.29693e-14 4.34498e-13 0)
(5.09199e-14 5.25712e-13 0)
(1.10787e-13 5.64556e-13 0)
(-2.64518e-13 3.21136e-13 0)
(-4.52254e-13 2.12576e-13 0)
(5.93488e-14 2.29611e-13 0)
(-4.80434e-14 6.79898e-14 0)
(-6.71623e-13 5.37021e-14 0)
(-7.4152e-13 2.77378e-13 0)
(-3.44694e-13 2.98268e-13 0)
(-2.40937e-13 5.07199e-13 0)
(-1.34614e-13 3.93135e-13 0)
(-6.00461e-14 3.74257e-13 0)
(4.63474e-14 3.05624e-13 0)
(2.12577e-14 3.94156e-13 0)
(-1.33328e-13 4.44852e-13 0)
(-4.86837e-14 4.51534e-13 0)
(1.93772e-13 4.92401e-13 0)
(2.93771e-13 6.29224e-13 0)
(1.6042e-13 3.69668e-13 0)
(1.80682e-13 3.1898e-13 0)
(3.32503e-13 2.34033e-13 0)
(4.16481e-13 1.95181e-13 0)
(2.78342e-13 1.77618e-13 0)
(-5.44572e-14 4.5487e-14 0)
(-1.07914e-13 2.37934e-13 0)
(4.57828e-14 4.18986e-13 0)
(1.81847e-13 5.11957e-13 0)
(-1.23834e-13 1.91063e-13 0)
(-4.0599e-13 2.73721e-13 0)
(3.36706e-14 2.33657e-13 0)
(6.50358e-14 2.7388e-14 0)
(-2.889e-13 4.13954e-14 0)
(-3.06458e-13 2.94136e-13 0)
(-1.53128e-14 3.51332e-13 0)
(-2.4334e-13 4.08647e-13 0)
(-4.82228e-13 3.61733e-13 0)
(-3.1521e-13 3.3983e-13 0)
(7.38854e-14 3.14903e-13 0)
(-1.52606e-13 2.97675e-13 0)
(-5.16608e-13 3.52628e-13 0)
(-3.55819e-13 3.92073e-13 0)
(-1.67992e-13 5.18244e-13 0)
(-1.53107e-13 6.36298e-13 0)
(-7.5008e-14 4.18766e-13 0)
(1.84114e-13 3.66914e-13 0)
(4.017e-13 4.43159e-13 0)
(5.37864e-13 3.99207e-13 0)
(4.07204e-13 4.26905e-13 0)
(9.00007e-14 3.4551e-13 0)
(6.29026e-14 2.84882e-13 0)
(1.90985e-13 4.31083e-13 0)
(-5.59484e-14 5.14106e-13 0)
(-3.10395e-13 3.62914e-13 0)
(-2.28772e-13 2.66591e-13 0)
(-6.00164e-14 2.08085e-13 0)
(-1.11678e-13 3.73415e-14 0)
(-1.51437e-13 5.537e-14 0)
(-3.08582e-14 1.68098e-13 0)
(1.18911e-13 2.59779e-13 0)
(1.09918e-14 4.61809e-13 0)
(-4.81837e-14 3.62067e-13 0)
(1.39284e-13 2.92028e-13 0)
(2.19474e-13 2.44346e-13 0)
(4.525e-14 4.17918e-13 0)
(-1.28591e-13 3.97045e-13 0)
(6.54254e-14 3.04298e-13 0)
(3.25186e-13 2.36971e-13 0)
(1.13446e-13 3.57794e-13 0)
(-1.52501e-13 2.40455e-13 0)
(1.38596e-13 2.65537e-13 0)
(3.08421e-13 6.83663e-13 0)
(4.23107e-13 8.05269e-13 0)
(3.73626e-13 7.45696e-13 0)
(4.1376e-13 8.58836e-13 0)
(3.5023e-13 9.65583e-13 0)
(2.22713e-13 8.3379e-13 0)
(1.33874e-13 4.86722e-13 0)
(-6.35084e-14 3.71847e-13 0)
(2.57285e-14 3.67163e-13 0)
(1.61656e-13 4.39464e-13 0)
(1.88923e-13 6.35428e-13 0)
(4.53569e-14 6.9305e-13 0)
(-9.0835e-14 4.74139e-13 0)
(-2.9828e-13 4.36352e-13 0)
(-2.26744e-13 2.86951e-13 0)
(-4.5889e-14 1.34698e-13 0)
(-2.05635e-13 2.28935e-13 0)
(1.20468e-14 2.92951e-13 0)
(8.33391e-14 4.24793e-13 0)
(6.72083e-14 4.24411e-13 0)
(7.97723e-14 5.12156e-13 0)
(9.71914e-14 6.24826e-13 0)
(2.94923e-13 6.7633e-13 0)
(3.55896e-13 7.6021e-13 0)
(4.65381e-13 6.54061e-13 0)
(6.63274e-13 7.95705e-13 0)
(5.22412e-13 6.78385e-13 0)
(1.44525e-13 5.79815e-13 0)
(1.14038e-13 6.12917e-13 0)
(2.11446e-13 7.55652e-13 0)
(1.94819e-13 6.03743e-13 0)
(2.78415e-13 5.91698e-13 0)
(3.39627e-13 5.30292e-13 0)
(3.84715e-13 5.2227e-13 0)
(7.98968e-14 3.88761e-13 0)
(-3.78978e-13 3.84302e-13 0)
(-5.83417e-13 2.99861e-13 0)
(-5.10126e-13 3.48102e-13 0)
(-2.59651e-13 5.58264e-13 0)
(-5.5608e-14 8.28996e-13 0)
(-2.03191e-14 6.90918e-13 0)
(1.46774e-13 5.67568e-13 0)
(2.55408e-13 5.2509e-13 0)
(2.02242e-13 3.74517e-13 0)
(2.5839e-13 5.94532e-13 0)
(6.84532e-14 8.36202e-13 0)
(-8.47734e-14 7.52766e-13 0)
(-1.05601e-13 7.48821e-13 0)
(-1.46733e-13 7.89592e-13 0)
(-4.78963e-14 7.56939e-13 0)
(-4.77828e-14 6.98948e-13 0)
(-1.80628e-13 6.93226e-13 0)
(-2.46361e-13 6.635e-13 0)
(-5.35266e-14 7.09555e-13 0)
(-1.26774e-13 8.34187e-13 0)
(-2.21248e-13 7.37759e-13 0)
(-1.83681e-13 6.87747e-13 0)
(-2.17991e-13 7.27728e-13 0)
(-1.31177e-13 7.54827e-13 0)
(-1.99728e-13 8.2642e-13 0)
(-2.76361e-13 8.95438e-13 0)
(-2.34588e-13 9.34536e-13 0)
(-6.68925e-14 7.92788e-13 0)
(-8.6353e-14 8.65036e-13 0)
(-2.68105e-13 7.67027e-13 0)
(-3.48624e-13 6.37683e-13 0)
(-2.68195e-13 7.23292e-13 0)
(5.67227e-14 5.20452e-13 0)
(4.01645e-13 5.45063e-13 0)
(3.20275e-13 6.11411e-13 0)
(4.70165e-14 6.54134e-13 0)
(2.27958e-13 4.76693e-13 0)
(4.49487e-13 4.23593e-13 0)
(1.39185e-13 5.12858e-13 0)
(-1.65185e-13 5.98488e-13 0)
(-1.11361e-14 5.28683e-13 0)
(1.53017e-13 3.07118e-13 0)
(-1.67548e-13 4.05821e-13 0)
(-5.33794e-13 5.62782e-13 0)
(-4.53826e-13 6.63769e-13 0)
(-1.78146e-13 5.52499e-13 0)
(-2.36598e-13 7.29579e-13 0)
(-5.2324e-13 8.12871e-13 0)
(-3.25313e-13 5.66403e-13 0)
(3.52167e-14 5.07291e-13 0)
(-1.45615e-13 4.62855e-13 0)
(-4.27829e-13 7.28525e-13 0)
(-2.00496e-13 5.07085e-13 0)
(1.53766e-13 3.25213e-13 0)
(4.08914e-14 3.42873e-13 0)
(-8.23256e-14 1.73154e-13 0)
(-2.20063e-14 2.77027e-13 0)
(1.82508e-13 2.75219e-13 0)
(5.96129e-13 2.33869e-13 0)
(5.08784e-13 2.94284e-13 0)
(1.65295e-13 3.30032e-13 0)
(8.21064e-14 2.78062e-13 0)
(2.11458e-13 4.21892e-13 0)
(3.21037e-14 5.45232e-13 0)
(-4.22862e-13 4.01687e-13 0)
(-4.36558e-13 4.67551e-13 0)
(-3.17854e-14 3.54929e-13 0)
(-1.85557e-13 2.53183e-13 0)
(-5.96391e-13 2.38547e-13 0)
(-6.22358e-13 6.4226e-13 0)
(-2.5827e-13 6.69457e-13 0)
(-1.46328e-13 7.58787e-13 0)
(-2.14399e-13 8.21694e-13 0)
(-1.29518e-13 6.05657e-13 0)
(1.38917e-13 6.72213e-13 0)
(1.9268e-13 8.72153e-13 0)
(-1.09662e-13 9.00547e-13 0)
(-7.78745e-14 6.4018e-13 0)
(2.3031e-13 5.90623e-13 0)
(1.31295e-13 7.77413e-13 0)
(-6.27334e-14 6.83607e-13 0)
(8.92572e-14 7.24067e-13 0)
(2.59956e-13 4.98045e-13 0)
(4.97751e-13 5.38038e-13 0)
(2.25883e-13 4.65642e-13 0)
(-9.95878e-14 3.70608e-13 0)
(1.08777e-13 4.19211e-13 0)
(2.33957e-13 4.64274e-13 0)
(-1.40748e-14 6.06738e-13 0)
(-2.51121e-13 3.62042e-13 0)
(-3.47149e-13 5.3147e-13 0)
(-1.85214e-13 2.67181e-13 0)
(-5.25151e-14 1.58582e-13 0)
(-1.24465e-13 1.86734e-13 0)
(-1.19921e-13 5.3837e-13 0)
(-3.18619e-14 4.80486e-13 0)
(-1.93445e-13 4.85922e-13 0)
(-4.88034e-13 6.92976e-13 0)
(-4.71343e-13 6.22414e-13 0)
(-2.67356e-14 5.50163e-13 0)
(-9.89849e-14 6.2902e-13 0)
(-4.20732e-13 7.84466e-13 0)
(-2.60525e-13 5.24149e-13 0)
(-1.02767e-14 5.79082e-13 0)
(-1.88781e-13 7.59482e-13 0)
(-2.36597e-13 6.95158e-13 0)
(1.84505e-13 6.59925e-13 0)
(4.15615e-13 5.68947e-13 0)
(5.93452e-13 4.90107e-13 0)
(3.83494e-13 6.54509e-13 0)
(-9.62243e-14 6.11224e-13 0)
(1.12216e-13 5.38761e-13 0)
(3.77545e-13 5.00772e-13 0)
(-1.15391e-16 6.74324e-13 0)
(-3.72443e-13 8.12797e-13 0)
(-3.00672e-13 7.00826e-13 0)
(-1.27411e-13 4.89424e-13 0)
(-1.72963e-13 4.37499e-13 0)
(-6.76481e-14 3.93323e-13 0)
(-1.83938e-15 4.91146e-13 0)
(1.54197e-13 5.12415e-13 0)
(2.48404e-14 7.52472e-13 0)
(-1.79054e-13 8.92269e-13 0)
(8.37261e-14 7.0198e-13 0)
(3.72088e-13 5.87134e-13 0)
(1.53914e-13 7.6901e-13 0)
(-2.54338e-13 8.13455e-13 0)
(-6.28245e-14 5.56066e-13 0)
(3.2971e-13 4.93294e-13 0)
(1.86426e-13 5.09888e-13 0)
(-1.01829e-13 4.60658e-13 0)
(2.27359e-13 5.9818e-13 0)
(3.329e-13 7.34413e-13 0)
(4.35667e-13 6.80637e-13 0)
(4.36531e-13 7.89979e-13 0)
(6.37554e-13 9.64896e-13 0)
(3.44903e-13 9.23119e-13 0)
(-1.04162e-13 8.14666e-13 0)
(-5.93049e-14 6.01344e-13 0)
(-4.21392e-14 5.04834e-13 0)
(1.442e-15 6.25485e-13 0)
(2.77658e-13 6.79698e-13 0)
(2.80781e-13 5.50105e-13 0)
(-5.85108e-14 4.33606e-13 0)
(-1.94138e-13 4.46017e-13 0)
(-2.38185e-13 3.7209e-13 0)
(-2.05648e-13 4e-13 0)
(-9.06238e-14 3.3119e-13 0)
(-1.01988e-13 2.77699e-13 0)
(5.04249e-15 3.67756e-13 0)
(4.78751e-14 3.36294e-13 0)
(1.65221e-13 4.27483e-13 0)
(2.07001e-13 4.29874e-13 0)
(2.45533e-13 6.38501e-13 0)
(4.45827e-13 6.98452e-13 0)
(3.47598e-13 8.35627e-13 0)
(3.53893e-13 7.3788e-13 0)
(5.17627e-13 7.52732e-13 0)
(2.97794e-13 5.57642e-13 0)
(2.31324e-13 5.46627e-13 0)
(3.39166e-13 8.4316e-13 0)
(1.56601e-13 8.95104e-13 0)
(1.47084e-13 7.55495e-13 0)
(3.67796e-13 7.6708e-13 0)
(3.76074e-13 8.23399e-13 0)
(1.9219e-13 5.24086e-13 0)
(-3.3905e-14 2.44345e-13 0)
(-3.12133e-13 2.74213e-13 0)
(-5.11335e-13 4.66736e-13 0)
(-3.90649e-13 6.14528e-13 0)
(-5.92591e-15 7.05017e-13 0)
(-1.44938e-14 8.56274e-13 0)
(-1.44529e-13 8.80421e-13 0)
(-6.41252e-16 6.91848e-13 0)
(1.03755e-13 6.4015e-13 0)
(1.134e-13 6.29421e-13 0)
(2.80045e-13 6.75816e-13 0)
(1.04508e-13 5.25788e-13 0)
(-8.24977e-14 5.71807e-13 0)
(2.14167e-14 5.55648e-13 0)
(-7.24491e-14 6.75372e-13 0)
(-1.67441e-13 5.74441e-13 0)
(-3.7867e-14 6.10511e-13 0)
(-1.65376e-13 6.43977e-13 0)
(-1.88198e-13 6.90674e-13 0)
(7.27811e-14 7.37901e-13 0)
(-1.03064e-13 8.32083e-13 0)
(-3.38792e-13 8.09051e-13 0)
(-1.05312e-13 7.64645e-13 0)
(-1.31848e-13 9.51102e-13 0)
(-2.07466e-13 7.78078e-13 0)
(-8.85417e-14 7.30105e-13 0)
(-1.87923e-13 7.40149e-13 0)
(-3.35459e-13 7.90206e-13 0)
(-1.32448e-13 8.37529e-13 0)
(-8.59136e-14 9.49137e-13 0)
(-3.90217e-13 9.65666e-13 0)
(-3.96075e-13 8.07503e-13 0)
(-2.94842e-13 7.76189e-13 0)
(-2.7116e-14 7.25053e-13 0)
(4.10796e-13 6.8815e-13 0)
(3.62765e-13 4.33745e-13 0)
(1.13327e-14 4.43656e-13 0)
(5.86358e-14 4.94524e-13 0)
(4.58431e-13 5.37464e-13 0)
(3.1331e-13 2.92206e-13 0)
(-4.89093e-14 4.00008e-13 0)
(-1.6498e-13 3.15455e-13 0)
(1.64263e-14 2.64811e-13 0)
(-5.99134e-14 2.63049e-13 0)
(-4.25621e-13 3.69074e-13 0)
(-5.288e-13 3.72822e-13 0)
(-2.73544e-13 4.18965e-13 0)
(-1.51917e-13 3.38421e-13 0)
(-4.80804e-13 5.08109e-13 0)
(-4.22631e-13 4.41851e-13 0)
(-6.3734e-14 4.48905e-13 0)
(-1.82171e-14 3.69122e-13 0)
(-4.12278e-13 5.66784e-13 0)
(-4.04374e-13 3.78692e-13 0)
(1.36707e-14 3.69472e-13 0)
(-1.79848e-14 2.89404e-13 0)
(2.16718e-14 3.24103e-13 0)
(2.54672e-14 2.20667e-13 0)
(1.13545e-13 3.08897e-13 0)
(5.91131e-13 1.82664e-13 0)
(5.69573e-13 2.3231e-13 0)
(1.10669e-13 3.81867e-13 0)
(5.24646e-14 4.35663e-13 0)
(3.37126e-13 5.493e-13 0)
(4.12653e-14 3.26209e-13 0)
(-3.83796e-13 2.22325e-13 0)
(-4.66824e-13 3.33751e-13 0)
(-1.02666e-13 3.16488e-13 0)
(-1.16531e-13 2.13682e-13 0)
(-3.3149e-13 3.19817e-13 0)
(-4.36096e-13 5.06309e-13 0)
(-3.12753e-13 6.25708e-13 0)
(-1.20248e-13 6.49198e-13 0)
(-2.19812e-13 6.0516e-13 0)
(-2.05413e-13 5.53461e-13 0)
(2.44165e-13 6.52815e-13 0)
(2.16823e-13 6.45873e-13 0)
(-2.70659e-13 6.91284e-13 0)
(-2.35867e-13 6.05755e-13 0)
(2.77306e-13 6.46501e-13 0)
(2.46913e-13 6.27095e-13 0)
(8.6738e-15 7.84356e-13 0)
(5.32055e-15 7.28644e-13 0)
(1.84474e-13 7.04445e-13 0)
(4.50371e-13 5.84515e-13 0)
(2.22829e-13 4.16163e-13 0)
(-5.09775e-14 5.04459e-13 0)
(6.92488e-14 6.39904e-13 0)
(2.65875e-13 6.94187e-13 0)
(-1.19987e-14 5.34214e-13 0)
(-2.84781e-13 4.01459e-13 0)
(-4.21004e-13 3.87552e-13 0)
(-2.83008e-13 3.45139e-13 0)
(2.18658e-15 4.27044e-13 0)
(-4.06127e-14 3.37336e-13 0)
(-1.33056e-13 3.05256e-13 0)
(-1.46448e-13 3.20794e-13 0)
(-5.30491e-14 3.07108e-13 0)
(-3.32077e-13 4.25827e-13 0)
(-5.32918e-13 4.73552e-13 0)
(-2.34835e-14 5.52481e-13 0)
(2.34881e-14 5.77373e-13 0)
(-4.75598e-13 6.94902e-13 0)
(-4.06553e-13 6.3779e-13 0)
(3.56658e-14 6.83934e-13 0)
(-8.84399e-14 6.64062e-13 0)
(-2.39101e-13 7.50343e-13 0)
(1.11973e-13 6.72286e-13 0)
(3.00754e-13 4.37324e-13 0)
(5.28753e-13 4.1902e-13 0)
(4.28388e-13 3.14104e-13 0)
(-2.24734e-14 4.03748e-13 0)
(1.97433e-14 4.99235e-13 0)
(3.48165e-13 4.64162e-13 0)
(1.99066e-13 3.77461e-13 0)
(-2.91918e-13 5.3871e-13 0)
(-4.23034e-13 6.76893e-13 0)
(-2.11631e-13 6.40642e-13 0)
(-3.57419e-14 7.17732e-13 0)
(-8.40036e-14 6.46662e-13 0)
(-1.70958e-14 5.41802e-13 0)
(2.09769e-13 5.68237e-13 0)
(1.73827e-13 5.26931e-13 0)
(-1.53793e-13 6.41536e-13 0)
(-2.27436e-14 6.67761e-13 0)
(3.06279e-13 6.64767e-13 0)
(1.98835e-13 5.81535e-13 0)
(-2.45238e-13 6.62031e-13 0)
(-1.69508e-13 5.62346e-13 0)
(2.13352e-13 6.01905e-13 0)
(1.26854e-13 4.97407e-13 0)
(2.3972e-14 4.68611e-13 0)
(2.63044e-13 5.33197e-13 0)
(3.9853e-13 8.43886e-13 0)
(4.89659e-13 7.70588e-13 0)
(6.29178e-13 9.64502e-13 0)
(5.82391e-13 1.02788e-12 0)
(2.02757e-13 9.09889e-13 0)
(-1.03431e-13 8.09559e-13 0)
(-1.5423e-13 8.81954e-13 0)
(-5.66877e-15 8.54222e-13 0)
(1.29263e-13 9.30232e-13 0)
(5.02359e-14 8.97641e-13 0)
(-2.36969e-14 6.71494e-13 0)
(4.65285e-14 5.65751e-13 0)
(-2.38352e-14 6.74145e-13 0)
(-2.66323e-13 7.06018e-13 0)
(-2.4453e-13 7.70154e-13 0)
(-1.61211e-13 7.18456e-13 0)
(-8.07451e-14 6.98492e-13 0)
(7.62365e-14 6.96561e-13 0)
(1.18166e-13 6.74037e-13 0)
(1.39033e-13 7.06296e-13 0)
(3.10878e-13 5.89332e-13 0)
(3.9393e-13 7.21773e-13 0)
(4.82693e-13 7.08292e-13 0)
(3.73619e-13 6.43072e-13 0)
(2.9649e-13 8.061e-13 0)
(3.59064e-13 6.75805e-13 0)
(2.50331e-13 6.4755e-13 0)
(4.59768e-13 7.65934e-13 0)
(4.92049e-13 8.36391e-13 0)
(7.87539e-14 8.28258e-13 0)
(6.55434e-14 9.08805e-13 0)
(4.27115e-13 8.71e-13 0)
(1.80582e-13 8.26129e-13 0)
(-1.31569e-13 5.36842e-13 0)
(-1.31851e-13 4.95188e-13 0)
(-1.97366e-13 4.18979e-13 0)
(-2.3603e-13 4.24625e-13 0)
(-2.0254e-13 5.91556e-13 0)
(4.43659e-14 6.51429e-13 0)
(9.40821e-14 5.88034e-13 0)
(-1.64473e-13 7.2342e-13 0)
(-7.20016e-14 7.47221e-13 0)
(1.43016e-13 8.03431e-13 0)
(2.30456e-13 7.48022e-13 0)
(1.38805e-13 6.63656e-13 0)
(-6.03831e-14 4.22544e-13 0)
(-7.05813e-14 4.50754e-13 0)
(-1.80798e-14 4.67418e-13 0)
(-1.19708e-13 4.21837e-13 0)
(-1.09314e-13 5.57595e-13 0)
(3.03926e-14 6.02361e-13 0)
(-8.09967e-14 6.36859e-13 0)
(-7.62213e-14 8.61969e-13 0)
(1.24525e-13 9.76483e-13 0)
(-8.7197e-14 8.09311e-13 0)
(-2.87916e-13 9.39632e-13 0)
(1.38083e-15 9.84494e-13 0)
(-1.70959e-13 1.08477e-12 0)
(-3.52385e-13 1.04189e-12 0)
(-2.07148e-13 8.74198e-13 0)
(-2.13132e-13 6.71214e-13 0)
(-1.85897e-13 7.55795e-13 0)
(5.33677e-15 8.38565e-13 0)
(1.21533e-14 8.33786e-13 0)
(-3.92124e-13 8.57137e-13 0)
(-4.73187e-13 1.03521e-12 0)
(-3.61236e-13 9.53986e-13 0)
(-1.24637e-13 9.75459e-13 0)
(1.55618e-13 8.26854e-13 0)
(1.32859e-13 5.85702e-13 0)
(6.06533e-14 5.0245e-13 0)
(2.15496e-13 6.21183e-13 0)
(3.07206e-13 6.72659e-13 0)
(1.45501e-13 5.67794e-13 0)
(-1.03096e-13 4.9688e-13 0)
(-1.29359e-13 3.83708e-13 0)
(6.08968e-14 4.9157e-13 0)
(-8.54556e-14 3.53512e-13 0)
(-5.01539e-13 3.92516e-13 0)
(-4.51298e-13 3.11764e-13 0)
(-2.45775e-13 3.75178e-13 0)
(-1.2255e-13 2.94309e-13 0)
(-3.37237e-13 2.41574e-13 0)
(-4.02207e-13 3.89078e-13 0)
(-1.5417e-13 4.40246e-13 0)
(-2.73676e-14 3.95679e-13 0)
(-3.93676e-13 2.92898e-13 0)
(-4.40401e-13 4.02031e-13 0)
(-6.81811e-14 4.55924e-13 0)
(-1.0567e-14 3.7485e-13 0)
(-1.17489e-13 4.10506e-13 0)
(-3.28486e-14 2.78921e-13 0)
(1.6199e-13 4.74575e-13 0)
(5.28019e-13 3.22064e-13 0)
(6.48046e-13 1.77048e-13 0)
(3.02298e-13 2.15497e-13 0)
(2.43923e-13 5.05914e-13 0)
(2.0664e-13 5.47103e-13 0)
(-1.80907e-13 4.99783e-13 0)
(-4.15103e-13 4.85005e-13 0)
(-3.25944e-13 4.58054e-13 0)
(-1.21407e-13 5.69735e-13 0)
(-9.67654e-14 5.21941e-13 0)
(-2.49727e-13 5.50139e-13 0)
(-3.2358e-13 4.67636e-13 0)
(-1.88284e-13 5.88291e-13 0)
(-2.1272e-13 6.79718e-13 0)
(-3.33712e-13 5.19905e-13 0)
(-3.88393e-14 6.67262e-13 0)
(1.96193e-13 8.48764e-13 0)
(1.66914e-13 6.47742e-13 0)
(-2.06081e-13 5.06086e-13 0)
(-1.65335e-13 6.57312e-13 0)
(2.35811e-13 7.05629e-13 0)
(2.97881e-13 5.5933e-13 0)
(5.03724e-14 6.64749e-13 0)
(2.1636e-14 6.72272e-13 0)
(1.03846e-13 7.65575e-13 0)
(2.33687e-13 6.6923e-13 0)
(2.00178e-13 6.12476e-13 0)
(1.32581e-13 6.23915e-13 0)
(2.36514e-13 6.90678e-13 0)
(1.90142e-13 6.93644e-13 0)
(-1.77986e-13 6.53372e-13 0)
(-3.5928e-13 6.42391e-13 0)
(-3.59108e-13 4.62098e-13 0)
(-1.90942e-13 5.69675e-13 0)
(-1.00542e-13 6.32134e-13 0)
(-2.18777e-13 6.48025e-13 0)
(-1.59728e-13 5.18511e-13 0)
(-1.10943e-13 6.23513e-13 0)
(-8.94218e-14 6.09229e-13 0)
(-3.09763e-13 3.74786e-13 0)
(-3.27074e-13 5.04887e-13 0)
(1.38751e-14 6.17385e-13 0)
(1.49551e-14 5.51283e-13 0)
(-3.2825e-13 5.54543e-13 0)
(-3.14456e-13 7.29468e-13 0)
(-5.14366e-14 7.1197e-13 0)
(-1.31074e-13 5.73505e-13 0)
(-2.50522e-13 6.50329e-13 0)
(-4.30244e-14 6.24459e-13 0)
(2.08918e-13 6.21194e-13 0)
(3.79561e-13 6.06566e-13 0)
(3.64324e-13 5.96899e-13 0)
(1.77067e-13 6.8316e-13 0)
(7.97671e-14 7.46771e-13 0)
(1.94501e-13 7.6284e-13 0)
(9.69187e-14 6.84617e-13 0)
(-1.17049e-13 6.16954e-13 0)
(-1.93936e-13 6.98196e-13 0)
(-6.60941e-14 9.36976e-13 0)
(-9.85749e-14 1.02634e-12 0)
(-2.56197e-13 9.78107e-13 0)
(-8.41779e-14 8.26009e-13 0)
(7.26898e-14 8.05865e-13 0)
(6.32691e-14 6.38439e-13 0)
(-1.53111e-14 5.59725e-13 0)
(6.74966e-14 6.27801e-13 0)
(2.29268e-13 6.75685e-13 0)
(1.66979e-13 5.25239e-13 0)
(-1.98272e-13 4.87488e-13 0)
(-1.21234e-13 6.48319e-13 0)
(2.38757e-13 6.89885e-13 0)
(3.56726e-14 5.89856e-13 0)
(-7.45025e-14 5.7082e-13 0)
(2.84911e-13 5.45949e-13 0)
(4.17409e-13 1.14818e-12 0)
(5.73345e-13 1.21394e-12 0)
(6.23226e-13 1.09876e-12 0)
(4.88987e-13 1.02156e-12 0)
(1.14534e-13 1.0237e-12 0)
(-1.25076e-13 9.50666e-13 0)
(3.11408e-14 1.01666e-12 0)
(6.75423e-14 1.09862e-12 0)
(1.35092e-13 1.23399e-12 0)
(5.09423e-14 1.26894e-12 0)
(-7.76669e-14 1.14635e-12 0)
(-4.58492e-14 1.18423e-12 0)
(-1.06551e-13 1.20358e-12 0)
(-1.76456e-13 1.2581e-12 0)
(-1.66428e-13 1.14986e-12 0)
(-9.23522e-14 1.04933e-12 0)
(-1.51726e-13 1.12936e-12 0)
(-6.88571e-15 1.13008e-12 0)
(9.0413e-14 1.20549e-12 0)
(1.11779e-13 1.02104e-12 0)
(2.27323e-13 1.07793e-12 0)
(3.246e-13 1.02058e-12 0)
(3.34388e-13 9.34347e-13 0)
(3.95237e-13 7.40223e-13 0)
(3.87249e-13 8.44839e-13 0)
(3.14875e-13 9.16608e-13 0)
(3.58334e-13 9.75511e-13 0)
(3.99097e-13 9.7814e-13 0)
(4.14859e-13 7.93025e-13 0)
(2.19523e-13 6.7757e-13 0)
(1.45637e-13 9.13683e-13 0)
(2.72054e-13 8.0522e-13 0)
(2.97781e-14 6.39396e-13 0)
(-1.44275e-13 7.1156e-13 0)
(-1.42326e-13 7.75911e-13 0)
(-2.96554e-13 8.37765e-13 0)
(-2.55401e-13 7.52608e-13 0)
(-9.2384e-14 7.27832e-13 0)
(-3.506e-14 8.6001e-13 0)
(-5.16873e-15 7.44058e-13 0)
(2.59776e-14 7.49744e-13 0)
(9.45191e-14 9.8361e-13 0)
(8.86892e-14 1.14508e-12 0)
(-5.45935e-15 1.04058e-12 0)
(-8.85691e-14 6.99177e-13 0)
(-1.24802e-13 6.7851e-13 0)
(-2.05286e-14 6.4827e-13 0)
(2.91127e-14 7.46862e-13 0)
(4.64765e-14 6.74443e-13 0)
(-1.91452e-14 8.8462e-13 0)
(4.17574e-14 1.00805e-12 0)
(2.56356e-14 1.16204e-12 0)
(9.26857e-14 1.26482e-12 0)
(3.67923e-15 1.34025e-12 0)
(-1.87278e-13 1.13243e-12 0)
(-1.46157e-13 1.12667e-12 0)
(8.22921e-14 1.25453e-12 0)
(-6.44749e-14 1.11704e-12 0)
(-3.94359e-13 1.10124e-12 0)
(-3.72247e-13 1.15088e-12 0)
(-3.26512e-13 9.9303e-13 0)
(-1.9357e-13 1.05605e-12 0)
(-3.87154e-14 9.5946e-13 0)
(-2.0702e-14 8.68766e-13 0)
(-1.84248e-13 9.42084e-13 0)
(-2.59951e-13 1.23168e-12 0)
(-3.86308e-13 1.1054e-12 0)
(-2.41747e-13 1.16888e-12 0)
(9.06476e-14 1.11321e-12 0)
(4.71084e-14 1.07496e-12 0)
(-1.73985e-14 9.2662e-13 0)
(1.58875e-13 9.90184e-13 0)
(3.5363e-13 9.24007e-13 0)
(1.88558e-13 1.03932e-12 0)
(-1.68468e-13 8.85911e-13 0)
(-1.15318e-13 8.12626e-13 0)
(3.29892e-14 8.18056e-13 0)
(-1.35185e-13 7.09776e-13 0)
(-4.461e-13 6.13163e-13 0)
(-5.17485e-13 6.57695e-13 0)
(-2.05645e-13 6.88393e-13 0)
(-2.32628e-13 7.07834e-13 0)
(-3.55675e-13 5.9773e-13 0)
(-2.6714e-13 6.68355e-13 0)
(-6.82416e-14 6.56768e-13 0)
(-2.09615e-13 6.88115e-13 0)
(-4.59259e-13 5.18424e-13 0)
(-2.90307e-13 6.27639e-13 0)
(-4.9655e-14 7.13157e-13 0)
(-7.04983e-14 7.82652e-13 0)
(-8.35368e-14 7.79478e-13 0)
(4.6601e-14 6.76231e-13 0)
(1.64422e-13 6.79063e-13 0)
(3.5401e-13 6.78625e-13 0)
(4.76534e-13 5.68222e-13 0)
(3.85011e-13 4.49767e-13 0)
(3.23775e-13 6.3093e-13 0)
(2.62116e-13 4.94706e-13 0)
(-2.41204e-14 6.98882e-13 0)
(-3.69151e-13 7.05471e-13 0)
(-2.96395e-13 7.81435e-13 0)
(3.62685e-15 8.14191e-13 0)
(-1.85316e-13 8.75889e-13 0)
(-4.1582e-13 7.54744e-13 0)
(-3.36577e-13 6.77691e-13 0)
(-1.41112e-13 6.89525e-13 0)
(-2.45543e-13 5.98526e-13 0)
(-2.60757e-13 7.56829e-13 0)
(1.59054e-13 8.24755e-13 0)
(2.66388e-13 9.35248e-13 0)
(-5.10853e-14 8.67276e-13 0)
(-3.64522e-13 7.06554e-13 0)
(-1.01797e-13 8.33461e-13 0)
(2.51154e-13 8.10325e-13 0)
(2.42074e-13 6.95991e-13 0)
(9.95195e-14 6.17443e-13 0)
(1.37076e-13 7.06353e-13 0)
(1.75489e-13 7.63289e-13 0)
(2.51947e-13 8.25812e-13 0)
(1.40625e-13 8.97606e-13 0)
(5.43683e-14 8.47246e-13 0)
(1.455e-13 7.77192e-13 0)
(1.75333e-13 6.62287e-13 0)
(-7.51839e-14 7.48659e-13 0)
(-4.51642e-13 7.3759e-13 0)
(-4.50182e-13 7.25225e-13 0)
(-1.24685e-13 7.96358e-13 0)
(4.32849e-15 8.30855e-13 0)
(-1.59048e-13 7.77212e-13 0)
(-1.60098e-13 7.47345e-13 0)
(-6.99012e-14 7.82405e-13 0)
(-3.15911e-13 8.2039e-13 0)
(-4.8264e-13 6.66447e-13 0)
(-1.80694e-13 8.53817e-13 0)
(8.85222e-14 9.27513e-13 0)
(-4.131e-14 9.04111e-13 0)
(-2.84182e-13 9.0286e-13 0)
(-2.82566e-13 9.53334e-13 0)
(-1.85255e-13 8.96231e-13 0)
(-2.06007e-13 7.62159e-13 0)
(-1.50083e-13 8.29967e-13 0)
(6.26603e-14 8.86778e-13 0)
(2.77709e-13 1.02283e-12 0)
(5.17166e-13 9.81976e-13 0)
(5.53254e-13 1.10328e-12 0)
(1.81241e-13 1.18367e-12 0)
(5.32587e-14 1.15856e-12 0)
(2.75726e-13 1.07091e-12 0)
(2.39497e-14 1.06211e-12 0)
(-2.5938e-13 9.15869e-13 0)
(-5.55208e-14 9.24942e-13 0)
(1.53718e-13 9.76038e-13 0)
(-7.11255e-14 1.12012e-12 0)
(-3.43418e-13 1.16205e-12 0)
(-1.98349e-13 1.20339e-12 0)
(8.35842e-14 1.19875e-12 0)
(1.25348e-14 1.09553e-12 0)
(-1.09013e-13 9.09191e-13 0)
(4.13323e-14 9.23999e-13 0)
(2.52682e-13 9.70796e-13 0)
(3.03259e-14 9.1135e-13 0)
(-1.84663e-13 7.81682e-13 0)
(-1.42666e-14 1.00773e-12 0)
(1.94869e-13 9.93025e-13 0)
(7.69766e-14 9.24981e-13 0)
(1.06148e-14 8.95282e-13 0)
(2.83359e-13 9.0723e-13 0)
(3.87907e-13 1.40685e-12 0)
(4.84787e-13 1.3435e-12 0)
(4.64943e-13 1.12139e-12 0)
(4.42831e-13 1.00922e-12 0)
(8.81543e-14 1.06311e-12 0)
(-3.6634e-14 1.06949e-12 0)
(-3.47895e-14 1.20194e-12 0)
(2.34346e-13 1.18618e-12 0)
(3.90902e-13 1.49254e-12 0)
(-1.03152e-14 1.48605e-12 0)
(-8.49826e-14 1.46249e-12 0)
(9.10931e-14 1.45748e-12 0)
(-5.32968e-14 1.48472e-12 0)
(-3.25102e-13 1.39822e-12 0)
(-3.89786e-13 1.39692e-12 0)
(-1.29459e-13 1.3544e-12 0)
(-1.98928e-14 1.34807e-12 0)
(1.67449e-13 1.43447e-12 0)
(3.94351e-14 1.4758e-12 0)
(1.66224e-14 1.38489e-12 0)
(2.87962e-13 1.42322e-12 0)
(2.08634e-13 1.30568e-12 0)
(1.39729e-13 1.08899e-12 0)
(2.62335e-13 1.10741e-12 0)
(5.0019e-13 9.89169e-13 0)
(4.60618e-13 1.01849e-12 0)
(2.80601e-13 1.04949e-12 0)
(3.16075e-13 9.59744e-13 0)
(2.50786e-13 8.64066e-13 0)
(1.56536e-13 7.55661e-13 0)
(1.85103e-13 7.88436e-13 0)
(1.11601e-13 5.82487e-13 0)
(1.05602e-13 4.6822e-13 0)
(6.49961e-15 7.81802e-13 0)
(-4.39884e-14 8.39001e-13 0)
(-1.74053e-13 8.9406e-13 0)
(-3.58272e-13 1.06748e-12 0)
(-7.64935e-14 1.00855e-12 0)
(5.81077e-14 1.17134e-12 0)
(-3.52096e-14 1.22588e-12 0)
(6.52357e-14 1.27267e-12 0)
(2.474e-13 1.14981e-12 0)
(1.81715e-13 1.26814e-12 0)
(-2.33212e-13 1.26917e-12 0)
(-2.69621e-13 1.12696e-12 0)
(-1.33321e-13 9.91307e-13 0)
(-1.37644e-14 1.03318e-12 0)
(3.69104e-14 9.75398e-13 0)
(5.36256e-14 1.07239e-12 0)
(2.03739e-13 1.07536e-12 0)
(2.57035e-13 1.23698e-12 0)
(1.42443e-13 1.28741e-12 0)
(4.24361e-14 1.33317e-12 0)
(-2.36878e-14 1.22345e-12 0)
(-2.78579e-13 1.24898e-12 0)
(-1.93981e-13 1.29947e-12 0)
(-4.4687e-14 1.28331e-12 0)
(-3.0239e-13 1.00439e-12 0)
(-3.38959e-13 1.03445e-12 0)
(-3.21915e-13 1.07726e-12 0)
(-2.67566e-13 1.20916e-12 0)
(-1.72723e-13 1.2024e-12 0)
(-1.20503e-13 1.24594e-12 0)
(2.8184e-14 1.0912e-12 0)
(-4.27355e-14 1.21893e-12 0)
(-3.12765e-13 1.31398e-12 0)
(-4.59e-13 1.32229e-12 0)
(-1.26395e-13 1.38577e-12 0)
(1.2191e-13 1.38745e-12 0)
(-1.42817e-14 1.36694e-12 0)
(-5.50733e-14 1.29683e-12 0)
(2.22647e-13 1.33663e-12 0)
(3.32698e-13 1.24748e-12 0)
(5.86443e-14 1.13682e-12 0)
(-2.46845e-13 1.0808e-12 0)
(-1.55492e-13 1.14203e-12 0)
(-3.22255e-14 1.03772e-12 0)
(-2.33513e-13 9.42826e-13 0)
(-5.07849e-13 8.35846e-13 0)
(-3.49415e-13 9.69434e-13 0)
(-3.68195e-14 1.09009e-12 0)
(-2.27521e-13 9.90948e-13 0)
(-4.47386e-13 1.03395e-12 0)
(-3.3102e-13 1.06305e-12 0)
(-9.01035e-14 9.40292e-13 0)
(-1.78685e-13 7.94686e-13 0)
(-4.77803e-13 8.15163e-13 0)
(-2.74944e-13 9.67325e-13 0)
(1.15552e-13 1.00714e-12 0)
(6.23129e-14 9.80437e-13 0)
(-2.57743e-13 1.02672e-12 0)
(-1.21484e-13 1.01296e-12 0)
(1.7741e-13 9.17165e-13 0)
(4.90392e-13 1.02432e-12 0)
(4.06523e-13 9.48864e-13 0)
(3.18417e-13 8.32556e-13 0)
(2.86204e-13 7.46492e-13 0)
(1.8426e-13 7.0877e-13 0)
(-3.97584e-14 6.62549e-13 0)
(-3.33482e-13 6.88414e-13 0)
(-1.9644e-13 9.67767e-13 0)
(4.46142e-14 1.01902e-12 0)
(-1.764e-13 9.20306e-13 0)
(-4.91192e-13 9.62332e-13 0)
(-3.46357e-13 9.95288e-13 0)
(-2.24809e-13 1.00165e-12 0)
(-2.14861e-13 7.96129e-13 0)
(-9.21927e-14 1.0607e-12 0)
(1.36847e-13 1.0262e-12 0)
(3.07343e-13 9.79195e-13 0)
(-3.03736e-15 9.46993e-13 0)
(-3.3042e-13 1.05385e-12 0)
(-9.12483e-14 1.08359e-12 0)
(1.79105e-13 1.00625e-12 0)
(1.28511e-13 7.46277e-13 0)
(7.54932e-14 8.31185e-13 0)
(1.47014e-13 8.66153e-13 0)
(2.20557e-13 9.0156e-13 0)
(3.22316e-13 9.02112e-13 0)
(2.02564e-13 7.90762e-13 0)
(3.16204e-14 9.30779e-13 0)
(6.40402e-14 9.71169e-13 0)
(9.81122e-14 8.40758e-13 0)
(-1.32413e-13 7.22925e-13 0)
(-4.02496e-13 8.69105e-13 0)
(-3.10374e-13 1.01394e-12 0)
(-6.77861e-14 9.77592e-13 0)
(-1.52854e-13 8.1163e-13 0)
(-2.67011e-13 7.51919e-13 0)
(-1.4285e-13 8.67672e-13 0)
(-3.92352e-14 8.0183e-13 0)
(-2.1285e-13 7.44964e-13 0)
(-3.55198e-13 9.90145e-13 0)
(-6.37367e-14 1.1782e-12 0)
(1.80936e-13 1.25578e-12 0)
(3.43128e-14 1.16328e-12 0)
(-2.54509e-13 1.18795e-12 0)
(-3.28275e-13 1.23634e-12 0)
(-2.39521e-13 1.17285e-12 0)
(-1.86075e-13 1.03943e-12 0)
(-1.20064e-13 1.16121e-12 0)
(1.01143e-13 1.17597e-12 0)
(2.93967e-13 1.3408e-12 0)
(5.42969e-13 1.3177e-12 0)
(6.09804e-13 1.2024e-12 0)
(1.43663e-13 1.16084e-12 0)
(-1.26527e-13 1.24676e-12 0)
(1.19823e-13 1.21847e-12 0)
(1.54266e-14 1.04748e-12 0)
(-2.18789e-13 1.0741e-12 0)
(-7.54062e-14 1.15349e-12 0)
(1.38251e-13 1.09748e-12 0)
(1.36629e-14 1.00698e-12 0)
(-1.73997e-13 1.17715e-12 0)
(-5.47564e-14 1.28824e-12 0)
(-4.27378e-14 1.28873e-12 0)
(-1.52653e-13 1.20434e-12 0)
(-6.05727e-14 1.17309e-12 0)
(1.22007e-13 1.25908e-12 0)
(2.3579e-13 1.27267e-12 0)
(-2.5061e-14 1.23833e-12 0)
(-1.38992e-13 1.19741e-12 0)
(5.25457e-14 1.3229e-12 0)
(1.30747e-13 1.26521e-12 0)
(-2.78274e-14 1.21121e-12 0)
(-6.19383e-15 1.31508e-12 0)
(3.51376e-13 1.27658e-12 0)
(4.14219e-13 1.07138e-12 0)
(3.75669e-13 9.08398e-13 0)
(3.81359e-13 8.93753e-13 0)
(4.08684e-13 7.55948e-13 0)
(1.29613e-13 8.2589e-13 0)
(8.29752e-14 8.61791e-13 0)
(1.16331e-13 1.11268e-12 0)
(3.19253e-13 1.36692e-12 0)
(4.17166e-13 1.37336e-12 0)
(2.45785e-14 1.26928e-12 0)
(-8.85396e-14 1.4641e-12 0)
(-3.57814e-14 1.36022e-12 0)
(-1.30918e-13 1.25351e-12 0)
(-2.33865e-13 1.22064e-12 0)
(-2.37032e-13 1.47282e-12 0)
(-2.47774e-13 1.51858e-12 0)
(-3.03e-14 1.52873e-12 0)
(1.70101e-13 1.48121e-12 0)
(2.11843e-14 1.40078e-12 0)
(5.09961e-14 1.44868e-12 0)
(1.73661e-13 1.28588e-12 0)
(3.8043e-14 1.13909e-12 0)
(1.12498e-13 1.20072e-12 0)
(2.94701e-13 1.14259e-12 0)
(3.41233e-13 9.60066e-13 0)
(4.26043e-13 8.03782e-13 0)
(2.66256e-13 7.44597e-13 0)
(1.62709e-13 8.67731e-13 0)
(1.88869e-13 7.4286e-13 0)
(1.99865e-13 6.2058e-13 0)
(3.81582e-14 5.41328e-13 0)
(-5.42029e-14 4.84411e-13 0)
(1.8851e-13 4.75427e-13 0)
(1.56786e-13 6.39717e-13 0)