/*--------------------------------*- C++ -*----------------------------------*\
  =========                 |
  \\      /  F ield         | OpenFOAM: The Open Source CFD Toolbox
   \\    /   O peration     | Website:  https://openfoam.org
    \\  /    A nd           | Version:  13
     \\/     M anipulation  |
\*---------------------------------------------------------------------------*/
FoamFile
{
    format      ascii;
    class       volVectorField;
    location    "0.0004";
    object      U;
}
// * * * * * * * * * * * * * * * * * * * * * * * * * * * * * * * * * * * * * //

dimensions      [0 1 -1 0 0 0 0];

internalField   nonuniform List<vector> 
33333
(
(4.93453e-14 1.09974e-14 0)
(3.31977e-16 -6.08891e-14 0)
(-1.53471e-13 -6.74843e-14 0)
(-9.22658e-14 7.77061e-15 0)
(1.52918e-13 -1.22032e-13 0)
(2.87734e-13 -1.52449e-13 0)
(1.71913e-13 -1.57452e-13 0)
(5.92606e-14 -8.47992e-14 0)
(-7.31133e-15 -1.27386e-13 0)
(-1.14392e-13 -7.64121e-14 0)
(-2.06026e-13 -4.72156e-14 0)
(-2.52039e-13 -3.86751e-14 0)
(-1.36153e-13 -7.92397e-14 0)
(1.2683e-13 -1.93526e-14 0)
(1.63238e-13 -1.15084e-13 0)
(1.38695e-13 -1.69126e-13 0)
(1.14556e-13 -1.59767e-13 0)
(5.4135e-14 -5.98956e-14 0)
(1.69474e-14 -2.64757e-14 0)
(-3.50169e-14 -1.36626e-14 0)
(-9.1285e-14 -5.60807e-14 0)
(-3.3347e-14 -1.30213e-13 0)
(9.31397e-14 -9.15116e-14 0)
(6.35426e-14 -9.47858e-14 0)
(-1.3543e-14 -1.98721e-14 0)
(3.03927e-14 5.46157e-14 0)
(-7.04053e-14 9.82123e-14 0)
(-1.7119e-13 1.01842e-13 0)
(-1.79403e-13 8.74338e-14 0)
(3.48773e-14 -1.19877e-14 0)
(1.78301e-13 -8.76814e-14 0)
(1.44562e-13 -6.91003e-14 0)
(1.2277e-13 -1.16149e-13 0)
(1.49848e-14 -1.24282e-13 0)
(-1.10602e-13 -7.87968e-14 0)
(-1.52645e-13 -6.36103e-14 0)
(-2.35158e-13 -2.89605e-14 0)
(-1.09133e-13 -2.61442e-14 0)
(2.15973e-13 2.20554e-14 0)
(2.55971e-13 -1.13171e-13 0)
(7.96565e-14 -8.78898e-14 0)
(-3.63496e-14 -1.59016e-13 0)
(-1.30485e-13 -1.03018e-13 0)
(-1.37632e-13 -7.16243e-14 0)
(-1.69575e-13 -7.05461e-14 0)
(-9.37924e-14 -3.93908e-14 0)
(3.62198e-14 -1.28724e-13 0)
(1.99522e-13 -1.03806e-13 0)
(1.90577e-13 -4.98578e-14 0)
(1.18736e-13 -4.17103e-15 0)
(1.01457e-13 5.70815e-14 0)
(3.87315e-14 5.48189e-14 0)
(-1.36116e-14 3.66818e-14 0)
(4.88073e-14 -4.6736e-14 0)
(1.1889e-13 -2.06576e-13 0)
(6.20169e-14 -1.82137e-13 0)
(7.1611e-16 -1.17232e-13 0)
(2.86368e-15 -1.6566e-13 0)
(-5.63272e-14 -1.72748e-13 0)
(-1.68122e-13 -1.02048e-13 0)
(-2.36019e-13 -1.09417e-13 0)
(-6.00433e-14 -2.00117e-14 0)
(1.48957e-13 -7.95731e-14 0)
(1.31564e-13 -1.31146e-13 0)
(4.40077e-14 -1.41628e-13 0)
(-8.79408e-15 -1.32846e-13 0)
(-3.37309e-14 -1.2808e-13 0)
(-7.80043e-14 -9.75726e-14 0)
(-5.8676e-14 -4.92088e-14 0)
(-7.13349e-14 -1.62264e-14 0)
(-1.08333e-13 2.41421e-14 0)
(-1.93231e-14 -3.42781e-15 0)
(1.37882e-13 -1.61789e-14 0)
(6.9477e-14 -5.68829e-14 0)
(-1.60796e-15 -3.58303e-14 0)
(1.02469e-14 -3.24586e-14 0)
(-1.63491e-15 2.67048e-16 0)
(-3.78782e-14 9.77613e-16 0)
(2.684e-14 -7.78732e-14 0)
(4.81415e-14 -2.11764e-13 0)
(1.10976e-15 -1.86315e-13 0)
(3.21394e-14 -1.46556e-13 0)
(2.34345e-14 -1.48041e-13 0)
(-2.29763e-14 -1.00703e-13 0)
(-1.12133e-13 -6.18794e-14 0)
(-1.48578e-13 -3.15485e-14 0)
(-1.16409e-13 -1.50213e-14 0)
(5.48302e-14 -1.12294e-13 0)
(1.73435e-13 -1.17095e-13 0)
(3.61865e-15 -9.22735e-14 0)
(-7.37193e-14 -8.1723e-15 0)
(-3.6641e-14 2.97789e-14 0)
(2.98028e-14 -1.95042e-15 0)
(-6.03277e-14 -5.80611e-15 0)
(-1.55295e-13 -6.71596e-14 0)
(-2.33267e-13 -1.21811e-13 0)
(-1.22264e-13 -1.03379e-13 0)
(1.05423e-13 4.39147e-14 0)
(2.57164e-13 2.1517e-14 0)
(2.43173e-13 -3.44729e-14 0)
(8.90022e-14 -1.16799e-14 0)
(-9.40998e-14 2.57933e-15 0)
(-1.6861e-13 -7.72348e-15 0)
(-1.84097e-13 -7.47919e-14 0)
(-1.09195e-13 -1.32254e-13 0)
(1.57182e-13 1.04114e-14 0)
(3.44874e-13 -5.80182e-14 0)
(2.0252e-13 -9.02517e-14 0)
(8.57553e-14 -1.48978e-13 0)
(-7.7033e-15 -7.67193e-14 0)
(-1.39186e-13 -5.45214e-14 0)
(-2.26428e-13 -2.88243e-14 0)
(-1.35808e-13 2.96374e-16 0)
(2.76463e-14 -6.21272e-14 0)
(1.50157e-13 -1.02861e-13 0)
(1.79011e-13 -9.30795e-14 0)
(2.94311e-14 -7.78556e-14 0)
(-3.68651e-14 -6.39091e-14 0)
(-7.06678e-14 -1.12435e-14 0)
(-4.99205e-14 -4.92267e-15 0)
(-2.52088e-14 -1.75708e-13 0)
(-1.29254e-13 -2.78253e-13 0)
(-9.06931e-14 -2.08401e-13 0)
(5.18862e-15 -1.43164e-13 0)
(-6.0168e-14 -1.32998e-13 0)
(-4.92222e-14 -5.05386e-14 0)
(5.76323e-15 -2.79946e-14 0)
(-6.15312e-14 -5.1129e-14 0)
(-7.35328e-14 -3.56786e-14 0)
(7.66463e-14 -1.48199e-13 0)
(1.54579e-13 -1.33239e-13 0)
(1.05027e-13 -4.74927e-14 0)
(-1.06379e-14 -4.36672e-14 0)
(1.28758e-14 5.27199e-15 0)
(9.92566e-15 -3.30018e-14 0)
(-1.38582e-13 -5.75979e-17 0)
(-2.20492e-13 -1.292e-13 0)
(-1.14233e-13 -9.06444e-14 0)
(1.37729e-13 3.32297e-15 0)
(1.64105e-13 -9.8306e-14 0)
(6.77065e-14 -6.70336e-14 0)
(1.42183e-13 -5.08153e-14 0)
(2.23372e-13 -1.62025e-14 0)
(9.72239e-14 -3.36998e-14 0)
(-7.37777e-14 -5.18291e-14 0)
(-1.67751e-13 -7.92912e-14 0)
(-5.24276e-14 -1.02074e-13 0)
(1.62576e-13 -6.97448e-14 0)
(1.14698e-13 -8.17198e-14 0)
(2.53398e-14 -1.43231e-14 0)
(4.79854e-14 1.91979e-14 0)
(9.28787e-14 1.52676e-14 0)
(3.30578e-15 -4.14447e-14 0)
(-4.75665e-14 -1.65508e-13 0)
(2.92972e-14 -1.84088e-13 0)
(-4.57934e-15 -1.55293e-13 0)
(1.23235e-14 -1.26727e-13 0)
(2.99597e-14 -1.69446e-13 0)
(-5.64779e-14 -1.32316e-13 0)
(-9.01662e-14 -1.04578e-13 0)
(-4.93009e-14 -5.30783e-14 0)
(1.18457e-13 -3.85523e-14 0)
(3.38235e-13 -8.1066e-14 0)
(5.19768e-13 7.32682e-14 0)
(7.43298e-13 -2.11995e-14 0)
(8.81336e-13 3.31164e-14 0)
(9.93605e-13 -5.76745e-15 0)
(-5.47347e-16 -1.97477e-13 0)
(-1.20863e-14 -2.79074e-13 0)
(-3.85563e-14 -1.98783e-13 0)
(-8.60964e-14 -7.02362e-14 0)
(7.06379e-14 -1.31691e-13 0)
(2.40108e-13 -2.73818e-13 0)
(1.25797e-13 -3.43845e-13 0)
(9.05636e-14 -3.92759e-13 0)
(-1.21141e-14 -3.94818e-13 0)
(-9.45179e-14 -2.48523e-13 0)
(-1.86878e-13 -1.95864e-13 0)
(-2.61706e-13 -2.02736e-13 0)
(-7.07985e-14 -1.95725e-13 0)
(1.43639e-13 -1.43733e-13 0)
(9.83925e-14 -2.57068e-13 0)
(1.07002e-13 -2.61418e-13 0)
(1.87388e-13 -2.95196e-13 0)
(1.05291e-13 -2.3729e-13 0)
(4.67321e-14 -1.897e-13 0)
(-7.90116e-14 -1.5487e-13 0)
(-1.60849e-13 -2.16646e-13 0)
(-3.91911e-14 -1.98408e-13 0)
(1.19384e-13 -2.63081e-13 0)
(8.64657e-14 -2.82507e-13 0)
(7.7605e-14 -1.53327e-13 0)
(6.16341e-14 -8.37221e-14 0)
(-4.40426e-14 -3.10615e-14 0)
(-1.63985e-13 8.34413e-16 0)
(-2.42691e-13 -8.2803e-15 0)
(-4.37971e-14 -1.2696e-13 0)
(1.57115e-13 -2.84721e-13 0)
(1.30293e-13 -2.62356e-13 0)
(6.73029e-14 -3.25689e-13 0)
(-4.36331e-15 -3.93035e-13 0)
(-7.36317e-14 -2.83458e-13 0)
(-1.21918e-13 -1.99329e-13 0)
(-1.76294e-13 -2.02345e-13 0)
(-1.9902e-14 -9.28734e-14 0)
(1.70986e-13 -1.11443e-13 0)
(1.251e-13 -2.45663e-13 0)
(2.36096e-14 -2.35841e-13 0)
(-9.81432e-15 -3.49802e-13 0)
(-6.9209e-14 -2.6829e-13 0)
(-1.10781e-13 -2.93054e-13 0)
(-1.03634e-13 -2.7341e-13 0)
(-1.39095e-13 -2.10328e-13 0)
(2.5802e-14 -1.37584e-13 0)
(2.37795e-13 -1.51895e-13 0)
(2.0858e-13 -1.88824e-13 0)
(1.60895e-13 -1.36339e-13 0)
(1.01348e-13 -1.45049e-13 0)
(5.37684e-14 -1.35654e-13 0)
(2.96272e-14 -1.18761e-13 0)
(-1.97396e-14 -1.19233e-13 0)
(2.03488e-15 -2.60998e-13 0)
(8.47286e-14 -3.84827e-13 0)
(-6.80452e-16 -3.318e-13 0)
(-5.48206e-14 -4.30061e-13 0)
(-2.80518e-14 -4.65074e-13 0)
(-9.1957e-14 -3.66783e-13 0)
(-1.52084e-13 -2.07342e-13 0)
(-6.02477e-14 -2.59657e-13 0)
(6.8498e-14 -3.33026e-13 0)
(6.0616e-14 -3.29695e-13 0)
(2.81728e-14 -4.36676e-13 0)
(5.63547e-15 -3.82868e-13 0)
(3.88504e-14 -4.10938e-13 0)
(2.62248e-14 -2.53927e-13 0)
(-2.60365e-14 -1.94909e-13 0)
(-7.23016e-14 -1.64162e-13 0)
(-8.4748e-14 -1.69822e-13 0)
(-1.75726e-14 -1.75486e-13 0)
(8.14641e-14 -2.30862e-13 0)
(5.72512e-14 -2.81713e-13 0)
(2.96018e-14 -2.10604e-13 0)
(-2.28014e-15 -1.77798e-13 0)
(7.91248e-15 -1.90364e-13 0)
(1.04206e-14 -1.68915e-13 0)
(-7.27373e-14 -2.05081e-13 0)
(-2.40106e-14 -3.68738e-13 0)
(8.01534e-14 -3.76133e-13 0)
(5.01819e-14 -3.54173e-13 0)
(4.33052e-14 -3.83936e-13 0)
(1.28072e-14 -3.20205e-13 0)
(-4.40267e-14 -2.55228e-13 0)
(-9.38364e-14 -1.52977e-13 0)
(-1.81953e-13 -1.24949e-13 0)
(-7.03556e-15 -1.11445e-13 0)
(1.42498e-13 -2.06757e-13 0)
(2.56797e-14 -2.5881e-13 0)
(-2.84358e-14 -1.88709e-13 0)
(-1.15241e-14 -1.70373e-13 0)
(2.09881e-15 -1.85634e-13 0)
(-9.91919e-14 -1.93219e-13 0)
(-1.60192e-13 -1.99997e-13 0)
(-2.5151e-13 -1.56569e-13 0)
(-9.44193e-14 -9.51968e-14 0)
(1.04264e-13 -1.04255e-13 0)
(1.70101e-13 -2.06556e-13 0)
(1.79121e-13 -2.18926e-13 0)
(8.80611e-14 -2.28583e-13 0)
(-5.77318e-14 -1.70589e-13 0)
(-1.51084e-13 -1.7292e-13 0)
(-2.33809e-13 -1.2454e-13 0)
(-6.30116e-14 -1.49749e-13 0)
(2.30102e-13 -1.72454e-13 0)
(2.16931e-13 -1.12991e-13 0)
(1.47006e-13 -2.24469e-13 0)
(7.21729e-14 -2.79587e-13 0)
(9.83877e-15 -2.18903e-13 0)
(-8.63689e-14 -1.47394e-13 0)
(-1.5954e-13 -1.87159e-13 0)
(-1.43161e-13 -1.80952e-13 0)
(-1.19526e-14 -2.33837e-13 0)
(1.17014e-13 -2.65622e-13 0)
(1.44695e-13 -2.88929e-13 0)
(5.56407e-14 -3.33838e-13 0)
(4.59263e-15 -1.63566e-13 0)
(-6.07321e-14 -1.39253e-13 0)
(-1.12914e-13 -1.32075e-13 0)
(-1.64034e-13 -2.03603e-13 0)
(-8.59871e-14 -2.08108e-13 0)
(-1.31541e-14 -2.13586e-13 0)
(4.44819e-14 -2.76076e-13 0)
(6.09881e-15 -2.57369e-13 0)
(-2.01171e-14 -2.31314e-13 0)
(9.18626e-15 -2.38764e-13 0)
(-1.24772e-14 -1.8858e-13 0)
(-9.13638e-14 -1.30493e-13 0)
(3.05934e-14 -2.04712e-13 0)
(2.12939e-13 -2.86088e-13 0)
(1.32844e-13 -2.12413e-13 0)
(3.12166e-14 -2.52631e-13 0)
(3.16868e-14 -1.90654e-13 0)
(-2.48863e-14 -1.86442e-13 0)
(-1.57194e-13 -8.06802e-14 0)
(-2.52479e-13 -1.06032e-13 0)
(-7.33821e-14 -4.3282e-14 0)
(9.87813e-14 -9.04477e-14 0)
(1.17081e-13 -2.3455e-13 0)
(8.04183e-14 -3.35206e-13 0)
(1.49603e-13 -2.70774e-13 0)
(1.97634e-13 -2.06053e-13 0)
(7.65575e-14 -2.25042e-13 0)
(-6.30795e-14 -2.18221e-13 0)
(-1.42356e-13 -2.05938e-13 0)
(-5.72941e-15 -1.53765e-13 0)
(1.10732e-13 -2.24293e-13 0)
(7.90538e-14 -3.45699e-13 0)
(7.77073e-14 -1.96011e-13 0)
(8.88663e-14 -1.23315e-13 0)
(5.03168e-14 -1.21265e-13 0)
(-3.54317e-14 -1.72135e-13 0)
(-7.95126e-14 -1.08692e-13 0)
(-1.34297e-14 -3.03038e-13 0)
(5.73608e-14 -4.05137e-13 0)
(-1.85792e-14 -3.73654e-13 0)
(1.199e-15 -4.26389e-13 0)
(-2.71711e-14 -4.14893e-13 0)
(-6.25408e-15 -3.00634e-13 0)
(3.30568e-14 -2.07868e-13 0)
(9.12691e-14 -2.21541e-13 0)
(3.86977e-13 -2.81311e-13 0)
(5.79835e-13 -1.60423e-13 0)
(7.45274e-13 -2.67917e-13 0)
(1.00551e-12 -3.16288e-13 0)
(1.122e-12 -2.98939e-13 0)
(-1.38548e-13 -3.77783e-13 0)
(-4.86672e-15 -4.1166e-13 0)
(7.36036e-14 -3.5505e-13 0)
(-6.20548e-15 -2.53884e-13 0)
(-5.59866e-15 -3.05305e-13 0)
(1.15765e-13 -3.81239e-13 0)
(5.18577e-14 -4.49523e-13 0)
(1.66216e-14 -4.59647e-13 0)
(6.43559e-14 -4.50974e-13 0)
(5.03473e-14 -4.13196e-13 0)
(-1.28126e-13 -4.12522e-13 0)
(-2.33577e-13 -3.30694e-13 0)
(-5.14513e-14 -2.81374e-13 0)
(8.91167e-14 -3.02138e-13 0)
(8.67483e-14 -3.53885e-13 0)
(1.37341e-13 -2.84755e-13 0)
(1.32101e-13 -3.60761e-13 0)
(1.42863e-13 -3.51548e-13 0)
(6.49198e-14 -2.97015e-13 0)
(-6.52208e-14 -3.0623e-13 0)
(-1.21946e-13 -2.96789e-13 0)
(-6.79246e-14 -2.54019e-13 0)
(8.87986e-15 -3.49475e-13 0)
(1.61098e-13 -3.73534e-13 0)
(1.39789e-13 -3.75361e-13 0)
(9.5173e-14 -2.87455e-13 0)
(1.67081e-14 -1.88902e-13 0)
(-1.33063e-13 -1.44928e-13 0)
(-2.26934e-13 -1.2712e-13 0)
(-1.88458e-13 -1.48446e-13 0)
(2.5143e-14 -3.07897e-13 0)
(5.34375e-14 -4.17588e-13 0)
(-2.04388e-14 -4.37651e-13 0)
(5.20769e-14 -4.31495e-13 0)
(5.27178e-14 -4.26321e-13 0)
(-7.41818e-14 -4.00438e-13 0)
(-9.50075e-14 -3.16269e-13 0)
(-1.18423e-14 -2.19728e-13 0)
(4.80457e-14 -2.98957e-13 0)
(5.72643e-14 -3.86849e-13 0)
(-6.65248e-15 -3.74375e-13 0)
(-6.63279e-14 -4.23915e-13 0)
(-4.11003e-14 -4.53583e-13 0)
(-1.01246e-13 -4.74682e-13 0)
(-5.06752e-14 -4.17204e-13 0)
(-6.15609e-14 -2.92819e-13 0)
(4.58671e-14 -1.34964e-13 0)
(1.79791e-13 -2.06644e-13 0)
(2.01208e-13 -2.71768e-13 0)
(1.35391e-13 -2.61867e-13 0)
(6.64954e-14 -2.45892e-13 0)
(7.26078e-14 -2.68336e-13 0)
(4.85605e-14 -2.6709e-13 0)
(-2.62778e-14 -2.26467e-13 0)
(-9.68444e-14 -2.51816e-13 0)
(1.07329e-14 -3.24596e-13 0)
(-7.55586e-14 -3.80659e-13 0)
(-1.44117e-13 -4.27211e-13 0)
(-4.4419e-14 -4.65852e-13 0)
(2.02792e-15 -4.94119e-13 0)
(-1.06319e-13 -5.19769e-13 0)
(-8.77322e-14 -5.09395e-13 0)
(7.36653e-14 -4.49544e-13 0)
(2.49058e-14 -4.98457e-13 0)
(-3.88156e-14 -5.42785e-13 0)
(1.20877e-14 -5.50681e-13 0)
(1.0215e-13 -4.86472e-13 0)
(1.29672e-13 -4.75438e-13 0)
(5.64898e-14 -3.98893e-13 0)
(-9.4761e-14 -3.23552e-13 0)
(-1.54279e-13 -3.49482e-13 0)
(-5.59235e-14 -3.32036e-13 0)
(5.52307e-14 -3.60482e-13 0)
(1.06734e-13 -4.19592e-13 0)
(7.38147e-14 -4.38815e-13 0)
(2.16859e-14 -4.0549e-13 0)
(2.48603e-14 -3.97491e-13 0)
(2.68941e-14 -4.22701e-13 0)
(-9.86888e-14 -3.77919e-13 0)
(-5.35979e-14 -3.40152e-13 0)
(6.05444e-14 -3.97239e-13 0)
(2.4516e-14 -4.23315e-13 0)
(-2.06806e-15 -4.1703e-13 0)
(5.77212e-14 -3.86611e-13 0)
(9.46405e-14 -3.1306e-13 0)
(-3.8697e-14 -3.12797e-13 0)
(-9.96909e-14 -2.26214e-13 0)
(6.91188e-15 -1.00299e-13 0)
(3.69633e-14 -1.93323e-13 0)
(-1.49511e-14 -2.85881e-13 0)
(6.17319e-15 -2.91418e-13 0)
(5.37905e-15 -2.75969e-13 0)
(4.78825e-14 -2.99654e-13 0)
(-7.01928e-14 -2.74435e-13 0)
(-1.31459e-13 -2.67187e-13 0)
(-1.84613e-13 -1.86113e-13 0)
(-1.27735e-13 -1.17953e-13 0)
(-2.29749e-14 -2.26091e-13 0)
(1.24005e-13 -3.37871e-13 0)
(2.0136e-13 -4.41489e-13 0)
(8.58332e-14 -4.41943e-13 0)
(-1.14352e-14 -3.80282e-13 0)
(-1.106e-13 -4.06614e-13 0)
(-1.60049e-13 -3.37935e-13 0)
(-8.08131e-14 -2.05533e-13 0)
(1.63101e-13 -2.72318e-13 0)
(1.98642e-13 -2.92508e-13 0)
(9.28591e-14 -3.34505e-13 0)
(1.19785e-13 -2.95779e-13 0)
(8.83885e-14 -2.60669e-13 0)
(-8.70499e-14 -2.49096e-13 0)
(-2.13183e-13 -3.01689e-13 0)
(-1.89902e-13 -2.50882e-13 0)
(-7.71325e-14 -2.95887e-13 0)
(8.70333e-14 -4.06861e-13 0)
(7.15591e-14 -3.98441e-13 0)
(1.09607e-13 -3.91104e-13 0)
(1.22443e-13 -3.84826e-13 0)
(-1.57394e-16 -2.94004e-13 0)
(-1.13409e-13 -2.56164e-13 0)
(-1.07918e-13 -1.58815e-13 0)
(-6.89012e-14 -1.43219e-13 0)
(-8.53297e-14 -1.53561e-13 0)
(-3.1993e-14 -3.1339e-13 0)
(-4.17254e-14 -3.16156e-13 0)
(-8.53417e-14 -3.65141e-13 0)
(-2.51885e-15 -3.8307e-13 0)
(9.12293e-14 -3.43883e-13 0)
(2.73022e-14 -2.77125e-13 0)
(-4.09472e-14 -2.71695e-13 0)
(1.37325e-13 -3.33444e-13 0)
(9.45533e-14 -3.82968e-13 0)
(3.23807e-15 -3.50084e-13 0)
(8.27096e-14 -3.34649e-13 0)
(7.87413e-14 -3.38187e-13 0)
(-1.12103e-13 -3.09091e-13 0)
(-1.84801e-13 -2.02562e-13 0)
(-9.90558e-14 -1.183e-13 0)
(-3.7033e-14 -2.10318e-13 0)
(-7.65528e-15 -3.77376e-13 0)
(3.64892e-14 -4.51602e-13 0)
(1.80289e-13 -4.60944e-13 0)
(2.54992e-13 -4.7946e-13 0)
(1.25603e-13 -3.96985e-13 0)
(-6.67063e-15 -2.82144e-13 0)
(-9.81911e-14 -2.33803e-13 0)
(-6.68535e-14 -2.08643e-13 0)
(-2.18617e-14 -3.40363e-13 0)
(1.1796e-13 -3.81452e-13 0)
(1.59968e-13 -4.04103e-13 0)
(8.22007e-14 -3.62016e-13 0)
(1.98044e-14 -3.4617e-13 0)
(3.34756e-14 -3.55318e-13 0)
(-5.34191e-14 -2.76012e-13 0)
(-8.20401e-14 -3.12934e-13 0)
(-1.1795e-14 -4.40254e-13 0)
(-1.46174e-14 -4.80628e-13 0)
(-5.7858e-14 -4.51304e-13 0)
(1.01605e-14 -4.67873e-13 0)
(6.76012e-14 -4.23934e-13 0)
(5.3334e-15 -4.4995e-13 0)
(9.77992e-14 -3.97329e-13 0)
(4.55889e-13 -3.64248e-13 0)
(5.88472e-13 -4.75552e-13 0)
(6.69122e-13 -4.53903e-13 0)
(9.31534e-13 -4.77341e-13 0)
(1.15245e-12 -3.47553e-13 0)
(-8.23244e-14 -1.48677e-13 0)
(1.33127e-14 -1.44334e-13 0)
(4.55536e-14 -1.10589e-13 0)
(-6.28203e-14 -2.81852e-13 0)
(-4.66104e-14 -3.30524e-13 0)
(8.68755e-14 -3.82363e-13 0)
(8.92528e-14 -3.28369e-13 0)
(4.50266e-14 -2.76693e-13 0)
(1.26473e-14 -3.01112e-13 0)
(-1.02539e-14 -4.36244e-13 0)
(-8.56493e-14 -4.48267e-13 0)
(-1.38385e-13 -3.55927e-13 0)
(-3.68456e-14 -2.45356e-13 0)
(1.04292e-13 -2.95556e-13 0)
(1.65173e-13 -2.30996e-13 0)
(1.0304e-13 -2.46009e-13 0)
(4.88003e-14 -2.97688e-13 0)
(1.00115e-13 -3.192e-13 0)
(7.0172e-14 -2.65899e-13 0)
(-7.98653e-15 -2.96893e-13 0)
(-8.4318e-14 -2.37055e-13 0)
(-8.44401e-14 -1.95718e-13 0)
(-4.6079e-14 -2.65083e-13 0)
(8.31328e-14 -2.83062e-13 0)
(1.46762e-13 -3.86603e-13 0)
(2.13272e-13 -3.3105e-13 0)
(1.31802e-13 -2.64253e-13 0)
(-3.30221e-14 -2.13832e-13 0)
(-1.81908e-13 -1.89715e-13 0)
(-2.48099e-13 -2.0887e-13 0)
(-1.54777e-13 -2.97017e-13 0)
(-3.20242e-14 -3.99703e-13 0)
(3.50141e-14 -3.71049e-13 0)
(2.99105e-14 -3.67644e-13 0)
(-9.32673e-15 -4.32697e-13 0)
(-5.30446e-14 -4.81639e-13 0)
(3.75019e-14 -3.87422e-13 0)
(-2.80496e-14 -3.34419e-13 0)
(6.23125e-15 -4.39084e-13 0)
(7.343e-14 -4.58814e-13 0)
(-4.57859e-14 -4.81837e-13 0)
(-1.39807e-13 -4.69887e-13 0)
(-9.83383e-14 -5.14271e-13 0)
(-2.45246e-14 -4.28161e-13 0)
(8.02631e-14 -3.17916e-13 0)
(1.06541e-13 -1.39953e-13 0)
(5.96092e-14 -5.94934e-14 0)
(1.15575e-13 -1.28549e-13 0)
(1.75845e-13 -1.88479e-13 0)
(1.09922e-13 -2.12606e-13 0)
(6.54722e-14 -1.86106e-13 0)
(3.53426e-14 -2.2749e-13 0)
(6.84707e-14 -2.32065e-13 0)
(8.96773e-15 -2.56751e-13 0)
(-1.307e-13 -2.49682e-13 0)
(-1.04292e-13 -3.53379e-13 0)
(-9.23159e-14 -4.36775e-13 0)
(-1.19521e-13 -3.84049e-13 0)
(-9.909e-14 -4.09665e-13 0)
(-1.13667e-13 -5.11763e-13 0)
(-8.00337e-14 -5.53322e-13 0)
(2.4539e-15 -4.78573e-13 0)
(8.41831e-14 -4.34373e-13 0)
(1.63795e-14 -5.07814e-13 0)
(-3.10165e-14 -4.40568e-13 0)
(2.72226e-14 -3.96711e-13 0)
(6.6436e-14 -4.19839e-13 0)
(1.05238e-13 -5.29661e-13 0)
(1.07574e-13 -4.83258e-13 0)
(-6.07625e-15 -4.21557e-13 0)
(-8.21331e-14 -3.39537e-13 0)
(-4.85159e-14 -3.11808e-13 0)
(-8.91822e-15 -3.40906e-13 0)
(1.74768e-14 -4.18053e-13 0)
(4.44607e-14 -4.91967e-13 0)
(5.6654e-14 -4.09655e-13 0)
(-3.64958e-16 -3.59135e-13 0)
(3.88128e-14 -4.09947e-13 0)
(2.03315e-14 -4.75825e-13 0)
(-2.17646e-14 -3.84724e-13 0)
(-2.08675e-14 -3.88597e-13 0)
(2.51138e-15 -4.03571e-13 0)
(5.55619e-14 -3.3429e-13 0)
(7.84176e-14 -3.13614e-13 0)
(6.01581e-14 -2.69338e-13 0)
(-5.656e-15 -2.77934e-13 0)
(4.12744e-14 -2.44655e-13 0)
(4.76132e-14 -1.77259e-13 0)
(-2.24745e-14 -1.99115e-13 0)
(-1.03448e-14 -2.33914e-13 0)
(6.94862e-16 -2.30226e-13 0)
(-3.74608e-14 -2.65684e-13 0)
(-7.59282e-15 -2.88757e-13 0)
(-2.24948e-14 -3.05592e-13 0)
(-8.62055e-14 -2.78208e-13 0)
(-9.18129e-14 -1.94442e-13 0)
(-1.53991e-13 -1.50169e-13 0)
(-1.31018e-13 -2.27398e-13 0)
(-3.03026e-15 -3.18248e-13 0)
(1.20231e-13 -4.24332e-13 0)
(9.52344e-14 -4.1017e-13 0)
(-5.35496e-14 -4.38832e-13 0)
(-1.30502e-13 -4.71799e-13 0)
(-3.72286e-14 -3.93903e-13 0)
(3.55737e-14 -2.75234e-13 0)
(1.19621e-13 -2.54422e-13 0)
(1.29439e-13 -3.59702e-13 0)
(1.08182e-13 -3.69594e-13 0)
(1.34493e-13 -3.57943e-13 0)
(5.42991e-14 -2.91374e-13 0)
(-1.10026e-13 -2.85726e-13 0)
(-1.3518e-13 -3.22796e-13 0)
(-1.04847e-13 -2.76057e-13 0)
(-1.25323e-13 -2.55265e-13 0)
(1.09842e-14 -3.36653e-13 0)
(9.6385e-14 -3.294e-13 0)
(5.91139e-14 -3.77119e-13 0)
(7.29897e-14 -4.62068e-13 0)
(9.18181e-14 -3.77097e-13 0)
(3.36597e-15 -2.67151e-13 0)
(-1.92145e-14 -2.07848e-13 0)
(-3.3077e-14 -2.02818e-13 0)
(-1.5365e-13 -1.2509e-13 0)
(-1.08428e-13 -1.69701e-13 0)
(-3.15895e-14 -1.28797e-13 0)
(-6.48965e-14 -9.47133e-14 0)
(-2.48286e-14 -7.66404e-14 0)
(4.75153e-14 -1.18286e-13 0)
(-1.90928e-14 -1.73603e-13 0)
(-3.56632e-14 -2.24885e-13 0)
(6.16557e-14 -2.91422e-13 0)
(1.0387e-13 -3.49045e-13 0)
(6.66552e-14 -3.0725e-13 0)
(3.70561e-14 -2.42128e-13 0)
(3.70802e-14 -3.11308e-13 0)
(-3.21703e-14 -2.33908e-13 0)
(-1.0196e-13 -2.05066e-13 0)
(-9.19992e-14 -2.15821e-13 0)
(-1.21023e-13 -3.05201e-13 0)
(-8.52721e-14 -2.99891e-13 0)
(-1.96964e-14 -2.84762e-13 0)
(1.06586e-13 -3.05566e-13 0)
(2.23477e-13 -4.0219e-13 0)
(1.95982e-13 -4.06912e-13 0)
(8.26489e-14 -3.57434e-13 0)
(-4.90949e-14 -2.45333e-13 0)
(-1.11617e-13 -1.56382e-13 0)
(-4.21769e-14 -1.99854e-13 0)
(5.29766e-14 -2.73099e-13 0)
(1.09275e-13 -4.17486e-13 0)
(1.13717e-13 -4.33818e-13 0)
(6.00622e-14 -4.26059e-13 0)
(3.55407e-14 -4.19753e-13 0)
(1.80287e-14 -4.2254e-13 0)
(-5.61695e-14 -3.89126e-13 0)
(-7.34046e-14 -4.33177e-13 0)
(-4.75127e-14 -4.74712e-13 0)
(-1.4938e-14 -4.81281e-13 0)
(8.65923e-15 -4.3e-13 0)
(-7.46038e-15 -4.32171e-13 0)
(3.28996e-14 -5.08819e-13 0)
(1.58869e-13 -3.9097e-13 0)
(3.55823e-13 -3.92571e-13 0)
(5.23681e-13 -5.31292e-13 0)
(6.80402e-13 -3.9401e-13 0)
(1.02502e-12 -3.84175e-13 0)
(1.26625e-12 -3.46551e-13 0)
(-1.81177e-17 -4.44561e-14 0)
(6.8751e-14 9.05297e-15 0)
(-3.28423e-14 -6.53768e-15 0)
(-1.75378e-13 -8.03109e-14 0)
(-1.26172e-13 -1.86864e-13 0)
(5.23793e-14 -2.86112e-13 0)
(1.17139e-13 -2.43323e-13 0)
(3.92648e-14 -2.88018e-13 0)
(-8.67115e-14 -3.55691e-13 0)
(-4.4878e-14 -3.6908e-13 0)
(-1.43238e-14 -3.35559e-13 0)
(-2.19474e-14 -3.05702e-13 0)
(3.25378e-14 -1.56337e-13 0)
(1.08138e-13 -1.23976e-13 0)
(9.94774e-14 -1.59432e-13 0)
(5.6127e-14 -2.40111e-13 0)
(3.37695e-14 -2.71488e-13 0)
(1.46358e-13 -2.30113e-13 0)
(5.42396e-14 -2.93561e-13 0)
(-2.24451e-14 -3.04741e-13 0)
(7.66694e-15 -2.51644e-13 0)
(-2.4511e-14 -1.74165e-13 0)
(-4.15299e-14 -1.45321e-13 0)
(3.28822e-15 -2.32415e-13 0)
(9.39719e-14 -2.40178e-13 0)
(1.67923e-13 -3.15538e-13 0)
(1.09109e-13 -3.71835e-13 0)
(3.47377e-15 -3.19134e-13 0)
(-1.96675e-13 -2.07385e-13 0)
(-2.76121e-13 -2.30164e-13 0)
(-1.49732e-13 -1.86798e-13 0)
(-8.76011e-14 -2.42117e-13 0)
(-2.72324e-14 -3.39829e-13 0)
(6.17526e-14 -3.4929e-13 0)
(2.77076e-14 -3.20456e-13 0)
(-1.26178e-14 -2.77498e-13 0)
(7.7694e-15 -3.02792e-13 0)
(-2.38635e-14 -3.12633e-13 0)
(-1.2692e-14 -3.01833e-13 0)
(3.59305e-14 -3.6882e-13 0)
(-1.18548e-14 -4.35806e-13 0)
(-6.30702e-14 -3.73111e-13 0)
(8.97513e-15 -3.34541e-13 0)
(4.92364e-14 -2.45849e-13 0)
(1.88164e-13 -1.80121e-13 0)
(1.59401e-13 -1.00612e-13 0)
(1.09177e-13 -1.2306e-13 0)
(9.34778e-14 -5.68547e-14 0)
(1.01552e-13 -1.13534e-13 0)
(9.55812e-14 -1.53484e-13 0)
(1.65907e-14 -1.90159e-13 0)
(1.95211e-14 -2.37501e-13 0)
(6.34448e-14 -2.49727e-13 0)
(-3.23839e-14 -3.01453e-13 0)
(-2.03669e-13 -3.47684e-13 0)
(-1.72222e-13 -3.60711e-13 0)
(-1.23841e-13 -4.01347e-13 0)
(-8.85065e-14 -3.79286e-13 0)
(-5.50188e-14 -3.74056e-13 0)
(-7.72565e-14 -3.89404e-13 0)
(-8.47976e-14 -3.65989e-13 0)
(-4.65323e-14 -3.0134e-13 0)
(-1.76362e-14 -3.59705e-13 0)
(3.63565e-14 -3.84742e-13 0)
(7.35395e-14 -3.55493e-13 0)
(3.33674e-14 -3.18876e-13 0)
(2.85743e-15 -3.80823e-13 0)
(4.96226e-14 -3.54454e-13 0)
(7.74938e-14 -3.70239e-13 0)
(2.58076e-14 -3.84579e-13 0)
(-1.99817e-14 -3.82787e-13 0)
(-2.26438e-14 -3.30709e-13 0)
(-5.75914e-14 -3.41208e-13 0)
(-3.77098e-14 -3.48657e-13 0)
(5.67115e-14 -3.35721e-13 0)
(1.31786e-13 -3.38186e-13 0)
(4.66255e-15 -3.24903e-13 0)
(-6.49799e-14 -3.33802e-13 0)
(-6.79677e-14 -3.4849e-13 0)
(-6.13795e-14 -3.70982e-13 0)
(1.59564e-14 -3.77391e-13 0)
(3.69956e-14 -3.51766e-13 0)
(4.20838e-14 -3.6987e-13 0)
(1.46034e-13 -3.37663e-13 0)
(1.20398e-13 -3.02576e-13 0)
(-2.84921e-14 -3.03629e-13 0)
(2.1502e-14 -2.95595e-13 0)
(8.97955e-14 -3.3595e-13 0)
(-2.24789e-14 -2.85915e-13 0)
(-1.17119e-14 -2.09995e-13 0)
(-2.0554e-14 -2.50895e-13 0)
(-4.10733e-14 -2.81539e-13 0)
(-2.94504e-15 -2.4323e-13 0)
(-4.45219e-14 -3.3091e-13 0)
(-2.461e-14 -3.53833e-13 0)
(-8.78951e-14 -2.89818e-13 0)
(-2.01541e-13 -2.86079e-13 0)
(-1.44035e-13 -3.19916e-13 0)
(-3.12313e-14 -2.74872e-13 0)
(5.41589e-14 -3.0156e-13 0)
(2.91399e-14 -3.20683e-13 0)
(-1.25581e-14 -3.12166e-13 0)
(-6.23337e-14 -2.62771e-13 0)
(-4.42302e-14 -2.1047e-13 0)
(6.36261e-15 -2.57819e-13 0)
(1.37421e-13 -2.69107e-13 0)
(1.00279e-13 -3.35898e-13 0)
(4.61046e-14 -3.59003e-13 0)
(1.4542e-13 -3.58202e-13 0)
(1.1981e-13 -3.88313e-13 0)
(-7.79555e-14 -3.49142e-13 0)
(-1.62429e-13 -2.93284e-13 0)
(-1.03769e-13 -2.76846e-13 0)
(-8.95223e-14 -2.66371e-13 0)
(-2.39474e-14 -2.33637e-13 0)
(3.05864e-14 -3.15041e-13 0)
(3.45331e-14 -3.30425e-13 0)
(9.98759e-14 -3.54915e-13 0)
(1.22742e-13 -3.59168e-13 0)
(4.22893e-14 -3.5585e-13 0)
(-2.0352e-14 -3.02733e-13 0)
(2.33527e-14 -2.59173e-13 0)
(-5.44999e-14 -1.81755e-13 0)
(-6.23117e-14 -6.48639e-14 0)
(1.30415e-14 -7.26601e-14 0)
(-2.86308e-14 2.97788e-14 0)
(8.14194e-16 9.53049e-14 0)
(-1.18818e-16 3.3251e-14 0)
(-1.23352e-13 -1.69973e-14 0)
(-1.37071e-13 -1.66639e-13 0)
(-1.18991e-14 -2.40343e-13 0)
(5.70367e-14 -2.76806e-13 0)
(3.79757e-14 -3.38065e-13 0)
(7.70823e-14 -2.76807e-13 0)
(1.22218e-13 -2.73928e-13 0)
(3.65545e-14 -1.64387e-13 0)
(-1.59519e-13 -1.42353e-13 0)
(-1.33628e-13 -1.82833e-13 0)
(-8.80935e-14 -1.30814e-13 0)
(-5.65436e-14 -1.06052e-13 0)
(-9.74281e-16 -1.29756e-13 0)
(5.67242e-14 -1.47487e-13 0)
(1.21212e-13 -2.22054e-13 0)
(1.23616e-13 -3.09036e-13 0)
(1.35e-13 -3.42613e-13 0)
(8.10933e-14 -2.49794e-13 0)
(-2.4893e-14 -1.25753e-13 0)
(-8.93876e-14 -4.87139e-14 0)
(-5.98429e-14 -2.20235e-13 0)
(3.71133e-14 -2.62127e-13 0)
(3.84304e-14 -3.20376e-13 0)
(1.42905e-16 -3.37255e-13 0)
(1.90629e-14 -3.6502e-13 0)
(-2.80386e-14 -4.01221e-13 0)
(-1.03093e-13 -3.87022e-13 0)
(-1.52051e-14 -4.00977e-13 0)
(-2.93941e-14 -3.73722e-13 0)
(-3.05092e-14 -4.12615e-13 0)
(7.37763e-14 -3.96409e-13 0)
(2.92999e-14 -3.4288e-13 0)
(1.08979e-14 -2.76899e-13 0)
(1.57919e-13 -3.48577e-13 0)
(3.52443e-13 -2.83627e-13 0)
(5.6979e-13 -3.2341e-13 0)
(7.34364e-13 -2.62457e-13 0)
(9.51133e-13 -3.12662e-13 0)
(1.177e-12 -3.75997e-13 0)
(6.44011e-14 -8.1906e-14 0)
(8.79086e-14 -9.56728e-14 0)
(-2.04608e-14 -2.62833e-14 0)
(-1.97876e-13 -3.96055e-15 0)
(-2.21567e-13 -5.48983e-14 0)
(-6.40972e-14 -6.74877e-14 0)
(5.3908e-15 -1.64769e-13 0)
(-2.80917e-14 -2.62298e-13 0)
(-4.85471e-14 -2.568e-13 0)
(1.56386e-14 -1.7966e-13 0)
(1.73559e-14 -1.36125e-13 0)
(3.04229e-14 -1.41868e-13 0)
(7.35094e-14 3.75704e-15 0)
(1.34882e-13 3.86769e-15 0)
(5.60363e-14 2.22225e-14 0)
(-1.71483e-14 -1.36618e-13 0)
(3.23729e-14 -9.31125e-14 0)
(5.322e-14 -1.17745e-13 0)
(3.44895e-14 -1.61063e-13 0)
(6.14765e-14 -1.13445e-13 0)
(7.75659e-14 -7.7066e-14 0)
(1.71175e-14 -6.74577e-14 0)
(-4.8215e-14 -7.4583e-14 0)
(-5.68105e-15 -7.42961e-14 0)
(5.29374e-14 -4.50323e-14 0)
(8.97301e-14 -1.10146e-13 0)
(7.64372e-14 -1.32343e-13 0)
(5.82384e-14 -1.72695e-13 0)
(-1.41816e-13 -1.25042e-13 0)
(-2.4743e-13 -3.15575e-14 0)
(-1.39029e-13 4.08747e-15 0)
(-1.17239e-13 -2.55237e-14 0)
(-4.99443e-14 -8.56369e-14 0)
(3.73882e-14 -1.34111e-13 0)
(5.215e-14 -1.03059e-13 0)
(1.65677e-14 -4.47136e-14 0)
(2.29685e-15 -1.3951e-13 0)
(-4.01489e-15 -1.63869e-13 0)
(-3.65455e-14 -1.46872e-13 0)
(-3.22188e-14 -1.92494e-13 0)
(-1.48302e-14 -2.40397e-13 0)
(2.2192e-14 -1.21383e-13 0)
(4.10948e-14 -8.53566e-14 0)
(6.33196e-14 -7.52324e-14 0)
(1.39783e-13 -1.02333e-13 0)
(1.82665e-13 -9.33173e-14 0)
(1.65699e-13 -1.05659e-13 0)
(1.28003e-13 -1.46784e-13 0)
(8.05713e-14 -7.76762e-14 0)
(2.59161e-14 -4.8914e-14 0)
(-2.67711e-14 -9.95704e-14 0)
(-8.56902e-15 -9.51359e-14 0)
(2.48095e-14 -1.12481e-13 0)
(-1.10625e-13 -2.36119e-13 0)
(-1.92324e-13 -2.34815e-13 0)
(-1.39576e-13 -1.95804e-13 0)
(-9.31994e-14 -2.47835e-13 0)
(-6.37591e-14 -2.11724e-13 0)
(-7.90282e-14 -1.80728e-13 0)
(-9.67296e-14 -1.54268e-13 0)
(-3.39489e-14 -1.54514e-13 0)
(4.03018e-14 -1.33105e-13 0)
(-2.56857e-15 -1.67595e-13 0)
(-2.29495e-14 -1.73607e-13 0)
(1.23371e-14 -1.8343e-13 0)
(5.27416e-15 -2.30338e-13 0)
(5.66848e-14 -1.67501e-13 0)
(1.03506e-13 -1.12757e-13 0)
(7.29001e-14 -1.6304e-13 0)
(3.56582e-15 -1.87114e-13 0)
(-4.40792e-14 -2.021e-13 0)
(-1.08201e-14 -2.50218e-13 0)
(-2.53775e-14 -2.87635e-13 0)
(7.56789e-15 -2.19374e-13 0)
(2.38498e-14 -1.77253e-13 0)
(5.5725e-14 -1.75635e-13 0)
(-3.17921e-15 -1.67382e-13 0)
(-6.01024e-15 -8.2873e-14 0)
(-2.82297e-14 -7.59704e-14 0)
(-5.91232e-14 -8.2277e-14 0)
(-6.87053e-15 -8.57058e-14 0)
(3.18123e-14 -1.46815e-13 0)
(4.67911e-14 -2.73897e-13 0)
(8.57237e-14 -2.23838e-13 0)
(4.18736e-14 -2.54573e-13 0)
(3.88202e-14 -2.42219e-13 0)
(6.15798e-14 -2.02645e-13 0)
(6.87965e-14 -1.72214e-13 0)
(7.18917e-14 -2.12771e-13 0)
(3.86823e-14 -1.68705e-13 0)
(-3.9407e-14 -1.61309e-13 0)
(-6.19008e-14 -1.12204e-13 0)
(-1.61102e-14 -1.43054e-13 0)
(-8.58164e-14 -1.39758e-13 0)
(-1.052e-13 -1.83983e-13 0)
(-9.15981e-14 -2.41028e-13 0)
(-1.20046e-13 -2.21706e-13 0)
(-6.5589e-14 -1.66924e-13 0)
(-1.43339e-14 -1.00116e-13 0)
(2.81262e-14 -8.59769e-14 0)
(5.25496e-14 -7.83738e-14 0)
(1.24985e-14 -5.87676e-14 0)
(9.89245e-15 -1.50817e-14 0)
(-2.98166e-14 -1.07088e-14 0)
(-2.12007e-14 -5.7426e-14 0)
(7.18599e-14 -1.06873e-13 0)
(6.20017e-14 -1.65726e-13 0)
(7.72503e-14 -2.01951e-13 0)
(5.38659e-14 -2.00439e-13 0)
(1.53742e-14 -2.88828e-13 0)
(-4.38692e-15 -3.50121e-13 0)
(-5.08317e-14 -2.73928e-13 0)
(-2.84976e-14 -1.96275e-13 0)
(-6.94249e-14 -1.26247e-13 0)
(-2.9618e-14 -8.6588e-14 0)
(-2.16057e-14 -1.88491e-13 0)
(3.90703e-15 -1.55466e-13 0)
(4.95848e-14 -1.38808e-13 0)
(4.95511e-14 -2.01264e-13 0)
(1.80454e-14 -2.7322e-13 0)
(6.33897e-14 -2.55327e-13 0)
(9.19474e-14 -1.24545e-13 0)
(-2.75549e-16 -6.64719e-14 0)
(-4.08019e-14 -2.30662e-14 0)
(5.41302e-14 -1.724e-14 0)
(3.4435e-14 2.62277e-14 0)
(-1.78991e-15 -1.23089e-14 0)
(-5.63552e-14 3.66327e-14 0)
(-1.9203e-13 -7.90662e-14 0)
(-2.27728e-13 -1.08126e-13 0)
(-5.44018e-14 -9.90392e-14 0)
(4.82445e-16 -2.27063e-13 0)
(7.66113e-14 -2.36906e-13 0)
(8.87909e-14 -2.16858e-13 0)
(1.22156e-13 -1.71763e-13 0)
(6.60715e-14 -2.62396e-13 0)
(-7.55206e-14 -2.35982e-13 0)
(-8.2127e-14 -1.58668e-13 0)
(-7.25088e-14 -4.70172e-14 0)
(-1.07569e-13 9.90489e-16 0)
(-5.64417e-14 -6.03727e-14 0)
(5.74453e-14 -3.80037e-14 0)
(1.25699e-13 -6.42301e-14 0)
(1.41869e-13 -1.09714e-13 0)
(1.17622e-13 -1.12886e-13 0)
(1.1335e-13 -1.03061e-13 0)
(5.25235e-14 -8.13297e-14 0)
(-7.0852e-14 -9.83826e-14 0)
(-7.27944e-14 -2.79759e-14 0)
(-1.32218e-14 -7.12358e-14 0)
(-3.38466e-14 -1.02844e-13 0)
(-2.04307e-14 -1.65691e-13 0)
(-4.10805e-14 -1.84477e-13 0)
(-5.85967e-14 -2.16771e-13 0)
(-7.88059e-14 -2.08884e-13 0)
(-2.82297e-14 -2.46596e-13 0)
(-1.50876e-14 -3.14565e-13 0)
(2.03141e-14 -2.61866e-13 0)
(7.81012e-14 -2.2813e-13 0)
(3.78374e-14 -1.5441e-13 0)
(3.13528e-14 -7.08274e-14 0)
(1.42295e-13 -1.73538e-13 0)
(3.61066e-13 -1.51279e-13 0)
(5.46192e-13 -1.92371e-13 0)
(7.18295e-13 -1.52091e-13 0)
(8.7488e-13 -1.78699e-13 0)
(1.06492e-12 -2.15752e-13 0)
(7.30311e-14 6.18013e-14 0)