/*--------------------------------*- C++ -*----------------------------------*\
  =========                 |
  \\      /  F ield         | OpenFOAM: The Open Source CFD Toolbox
   \\    /   O peration     | Website:  https://openfoam.org
    \\  /    A nd           | Version:  13
     \\/     M anipulation  |
\*---------------------------------------------------------------------------*/
FoamFile
{
    format      ascii;
    class       volScalarField;
    location    "0.0012";
    object      CO2;
}
// * * * * * * * * * * * * * * * * * * * * * * * * * * * * * * * * * * * * * //

dimensions      [];

internalField   nonuniform List<scalar> 
33334
(
0.0150296
0.0150296
0.0150296
0.0150296
0.0150296
0.0150296
0.0150296
0.0150296
0.0150296
0.0150296
0.0150296
0.0150296
0.0150296
0.0150296
0.0150296
0.0150296
0.0150295
0.0150286
0.0150247
0.0150137
0.0149902
0.0149482
0.0148824
0.0147883
0.0146633
0.0145064
0.0143184
0.0141011
0.0138577
0.0135917
0.013307
0.0130076
0.0126972
0.0123794
0.0120571
0.0117331
0.0114096
0.0110887
0.0107718
0.0104602
0.0101549
0.00985662
0.0095659
0.00928312
0.00900854
0.00874227
0.00848437
0.00823479
0.00799346
0.00776024
0.00753496
0.00731744
0.00710744
0.00690476
0.00670912
0.00652028
0.00633796
0.00616188
0.00599174
0.00582724
0.00566811
0.00551405
0.00536478
0.00522006
0.00507966
0.00494337
0.00481096
0.00468225
0.00455704
0.00443517
0.00431647
0.00420081
0.00408804
0.00397803
0.00387067
0.00376584
0.00366344
0.00356337
0.00346553
0.00336985
0.00327622
0.00318458
0.00309485
0.00300696
0.00292084
0.00283643
0.00275367
0.0026725
0.00259287
0.00251473
0.00243804
0.00236274
0.0022888
0.00221617
0.00214483
0.00207472
0.00200581
0.00193807
0.00187146
0.00180595
0.00174149
0.00167807
0.00161566
0.00155425
0.00149381
0.00143429
0.00137558
0.00131759
0.00126025
0.00120371
0.00114834
0.00109471
0.00104325
0.000993699
0.000944401
0.000891775
0.000829974
0.000751281
0.000648362
0.000519519
0.000374696
0.000235341
0.000124128
5.24317e-05
1.65402e-05
3.51374e-06
4.34222e-07
2.56685e-08
5.7468e-10
3.9726e-12
1.97514e-13
1.91939e-13
1.91876e-13
1.91317e-13
1.88902e-13
1.83251e-13
1.74187e-13
1.62875e-13
1.51009e-13
1.39844e-13
1.29818e-13
1.20759e-13
1.12275e-13
1.04012e-13
9.57571e-14
8.74359e-14
7.90667e-14
7.07047e-14
6.24032e-14
5.41964e-14
4.60978e-14
3.81077e-14
3.02285e-14
2.24967e-14
1.50563e-14
8.31581e-15
3.14715e-15
5.46432e-16
2.81251e-17
6.03886e-18
5.85316e-18
5.85047e-18
5.85045e-18
5.85045e-18
5.85045e-18
5.85045e-18
0.0150296
0.0150296
0.0150296
0.0150296
0.0150296
0.0150296
0.0150296
0.0150296
0.0150296
0.0150296
0.0150296
0.0150296
0.0150296
0.0150296
0.0150296
0.0150296
0.0150295
0.0150286
0.0150247
0.0150137
0.0149902
0.0149482
0.0148824
0.0147883
0.0146633
0.0145064
0.0143184
0.0141011
0.0138577
0.0135917
0.013307
0.0130076
0.0126972
0.0123794
0.0120571
0.0117331
0.0114097
0.0110887
0.0107718
0.0104602
0.0101549
0.00985663
0.00956591
0.00928313
0.00900855
0.00874228
0.00848438
0.00823481
0.00799348
0.00776026
0.00753498
0.00731745
0.00710746
0.00690477
0.00670914
0.0065203
0.00633799
0.0061619
0.00599176
0.00582727
0.00566814
0.00551408
0.00536481
0.00522009
0.00507969
0.0049434
0.004811
0.00468228
0.00455707
0.0044352
0.00431651
0.00420085
0.00408808
0.00397807
0.00387071
0.00376588
0.00366348
0.00356341
0.00346558
0.00336989
0.00327626
0.00318462
0.00309489
0.003007
0.00292089
0.00283648
0.00275372
0.00267255
0.00259292
0.00251478
0.00243808
0.00236279
0.00228885
0.00221622
0.00214487
0.00207477
0.00200586
0.00193812
0.00187151
0.001806
0.00174154
0.00167812
0.00161571
0.0015543
0.00149386
0.00143434
0.00137563
0.00131764
0.00126031
0.00120376
0.00114839
0.00109476
0.0010433
0.000993748
0.000944451
0.000891832
0.000830043
0.000751369
0.000648471
0.000519641
0.000374812
0.000235431
0.000124184
5.24584e-05
1.65495e-05
3.51599e-06
4.34546e-07
2.56919e-08
5.75326e-10
3.97781e-12
1.9752e-13
1.91935e-13
1.91872e-13
1.91314e-13
1.88899e-13
1.8325e-13
1.74187e-13
1.62876e-13
1.5101e-13
1.39844e-13
1.29817e-13
1.20759e-13
1.12275e-13
1.04012e-13
9.57565e-14
8.74354e-14
7.90663e-14
7.07043e-14
6.24029e-14
5.41961e-14
4.60975e-14
3.81074e-14
3.02283e-14
2.24966e-14
1.50562e-14
8.31579e-15
3.14716e-15
5.46439e-16
2.81258e-17
6.03887e-18
5.85316e-18
5.85047e-18
5.85045e-18
5.85045e-18
5.85045e-18
5.85045e-18
0.0150296
0.0150296
0.0150296
0.0150296
0.0150296
0.0150296
0.0150296
0.0150296
0.0150296
0.0150296
0.0150296
0.0150296
0.0150296
0.0150296
0.0150296
0.0150296
0.0150295
0.0150286
0.0150247
0.0150137
0.0149902
0.0149482
0.0148824
0.0147883
0.0146633
0.0145064
0.0143184
0.0141011
0.0138577
0.0135917
0.013307
0.0130076
0.0126972
0.0123794
0.0120571
0.0117331
0.0114097
0.0110887
0.0107718
0.0104602
0.0101549
0.00985663
0.00956591
0.00928314
0.00900855
0.00874229
0.00848439
0.00823482
0.00799349
0.00776027
0.00753499
0.00731747
0.00710748
0.00690479
0.00670916
0.00652032
0.006338
0.00616192
0.00599178
0.00582729
0.00566816
0.0055141
0.00536484
0.00522011
0.00507972
0.00494343
0.00481102
0.00468231
0.00455711
0.00443524
0.00431654
0.00420088
0.00408811
0.00397811
0.00387075
0.00376592
0.00366352
0.00356345
0.00346562
0.00336993
0.0032763
0.00318467
0.00309494
0.00300705
0.00292093
0.00283652
0.00275377
0.0026726
0.00259297
0.00251483
0.00243814
0.00236284
0.0022889
0.00221628
0.00214493
0.00207482
0.00200592
0.00193818
0.00187157
0.00180606
0.0017416
0.00167818
0.00161577
0.00155436
0.00149392
0.0014344
0.0013757
0.0013177
0.00126037
0.00120383
0.00114846
0.00109483
0.00104336
0.000993808
0.000944513
0.000891903
0.000830132
0.000751485
0.000648619
0.000519812
0.000374982
0.000235571
0.000124276
5.25053e-05
1.6567e-05
3.52028e-06
4.3516e-07
2.57341e-08
5.7643e-10
3.98634e-12
1.97526e-13
1.91927e-13
1.91863e-13
1.91306e-13
1.88893e-13
1.83245e-13
1.74183e-13
1.62873e-13
1.51007e-13
1.39842e-13
1.29815e-13
1.20756e-13
1.12272e-13
1.04009e-13
9.57545e-14
8.74336e-14
7.90647e-14
7.0703e-14
6.24017e-14
5.41952e-14
4.60967e-14
3.81069e-14
3.02279e-14
2.24963e-14
1.50561e-14
8.31576e-15
3.14717e-15
5.46447e-16
2.81265e-17
6.03888e-18
5.85316e-18
5.85047e-18
5.85045e-18
5.85045e-18
5.85045e-18
5.85045e-18
0.0150296
0.0150296
0.0150296
0.0150296
0.0150296
0.0150296
0.0150296
0.0150296
0.0150296
0.0150296
0.0150296
0.0150296
0.0150296
0.0150296
0.0150296
0.0150296
0.0150295
0.0150286
0.0150247
0.0150137
0.0149902
0.0149482
0.0148824
0.0147883
0.0146633
0.0145064
0.0143184
0.0141011
0.0138577
0.0135917
0.013307
0.0130076
0.0126972
0.0123794
0.0120571
0.0117331
0.0114096
0.0110887
0.0107718
0.0104602
0.0101549
0.00985663
0.00956591
0.00928313
0.00900855
0.00874229
0.00848439
0.00823482
0.00799349
0.00776027
0.00753499
0.00731747
0.00710748
0.00690479
0.00670916
0.00652032
0.00633801
0.00616192
0.00599179
0.0058273
0.00566817
0.00551411
0.00536484
0.00522012
0.00507973
0.00494344
0.00481103
0.00468232
0.00455712
0.00443525
0.00431656
0.00420089
0.00408812
0.00397812
0.00387076
0.00376594
0.00366354
0.00356347
0.00346564
0.00336995
0.00327632
0.00318469
0.00309496
0.00300707
0.00292096
0.00283655
0.00275379
0.00267262
0.002593
0.00251486
0.00243816
0.00236287
0.00228893
0.0022163
0.00214496
0.00207485
0.00200595
0.00193821
0.0018716
0.00180609
0.00174163
0.00167821
0.0016158
0.0015544
0.00149396
0.00143444
0.00137573
0.00131774
0.00126041
0.00120387
0.0011485
0.00109486
0.0010434
0.000993844
0.000944551
0.000891947
0.000830189
0.000751561
0.000648721
0.000519934
0.00037511
0.00023568
0.000124352
5.25457e-05
1.65827e-05
3.52431e-06
4.35749e-07
2.57748e-08
5.7749e-10
3.99438e-12
1.97532e-13
1.91918e-13
1.91855e-13
1.91298e-13
1.88885e-13
1.83239e-13
1.74178e-13
1.62869e-13
1.51004e-13
1.39839e-13
1.29812e-13
1.20753e-13
1.12269e-13
1.04007e-13
9.57524e-14
8.74319e-14
7.90632e-14
7.07017e-14
6.24008e-14
5.41944e-14
4.60962e-14
3.81065e-14
3.02277e-14
2.24962e-14
1.50561e-14
8.31577e-15
3.1472e-15
5.46457e-16
2.81272e-17
6.03888e-18
5.85316e-18
5.85047e-18
5.85045e-18
5.85045e-18
5.85045e-18
5.85045e-18
0.0150296
0.0150296
0.0150296
0.0150296
0.0150296
0.0150296
0.0150296
0.0150296
0.0150296
0.0150296
0.0150296
0.0150296
0.0150296
0.0150296
0.0150296
0.0150296
0.0150295
0.0150286
0.0150247
0.0150137
0.0149902
0.0149482
0.0148824
0.0147883
0.0146633
0.0145064
0.0143184
0.0141011
0.0138577
0.0135917
0.013307
0.0130076
0.0126972
0.0123794
0.0120571
0.0117331
0.0114096
0.0110887
0.0107718
0.0104602
0.0101549
0.00985663
0.00956591
0.00928313
0.00900855
0.00874229
0.00848439
0.00823481
0.00799349
0.00776027
0.00753499
0.00731747
0.00710748
0.00690479
0.00670916
0.00652032
0.00633801
0.00616192
0.00599179
0.0058273
0.00566817
0.00551411
0.00536484
0.00522012
0.00507973
0.00494344
0.00481104
0.00468232
0.00455712
0.00443525
0.00431656
0.0042009
0.00408813
0.00397812
0.00387077
0.00376594
0.00366354
0.00356347
0.00346564
0.00336995
0.00327633
0.00318469
0.00309496
0.00300708
0.00292096
0.00283655
0.0027538
0.00267263
0.002593
0.00251487
0.00243817
0.00236288
0.00228894
0.00221631
0.00214497
0.00207486
0.00200596
0.00193822
0.00187161
0.0018061
0.00174164
0.00167822
0.00161582
0.00155441
0.00149397
0.00143445
0.00137575
0.00131775
0.00126042
0.00120388
0.00114851
0.00109488
0.00104341
0.000993857
0.000944565
0.000891963
0.00083021
0.000751592
0.000648763
0.000519988
0.000375168
0.000235733
0.000124389
5.25667e-05
1.65912e-05
3.52659e-06
4.36098e-07
2.58e-08
5.7817e-10
3.99969e-12
1.97536e-13
1.91913e-13
1.9185e-13
1.91293e-13
1.88881e-13
1.83235e-13
1.74175e-13
1.62866e-13
1.51001e-13
1.39837e-13
1.2981e-13
1.20751e-13
1.12268e-13
1.04006e-13
9.57515e-14
8.74311e-14
7.90626e-14
7.07013e-14
6.24005e-14
5.41942e-14
4.60961e-14
3.81064e-14
3.02276e-14
2.24962e-14
1.50561e-14
8.31582e-15
3.14723e-15
5.46467e-16
2.81279e-17
6.03889e-18
5.85316e-18
5.85047e-18
5.85045e-18
5.85045e-18
5.85045e-18
5.85045e-18
0.0150296
0.0150296
0.0150296
0.0150296
0.0150296
0.0150296
0.0150296
0.0150296
0.0150296
0.0150296
0.0150296
0.0150296
0.0150296
0.0150296
0.0150296
0.0150296
0.0150295
0.0150286
0.0150247
0.0150137
0.0149902
0.0149482
0.0148824
0.0147883
0.0146633
0.0145064
0.0143184
0.0141011
0.0138577
0.0135917
0.013307
0.0130076
0.0126972
0.0123794
0.0120571
0.0117331
0.0114096
0.0110887
0.0107718
0.0104602
0.0101549
0.00985662
0.0095659
0.00928313
0.00900855
0.00874228
0.00848438
0.00823481
0.00799348
0.00776027
0.00753499
0.00731747
0.00710748
0.00690479
0.00670916
0.00652032
0.00633801
0.00616192
0.00599178
0.0058273
0.00566817
0.00551411
0.00536484
0.00522012
0.00507973
0.00494344
0.00481104
0.00468232
0.00455712
0.00443525
0.00431656
0.0042009
0.00408813
0.00397812
0.00387077
0.00376594
0.00366354
0.00356347
0.00346564
0.00336995
0.00327633
0.00318469
0.00309497
0.00300708
0.00292096
0.00283656
0.0027538
0.00267263
0.002593
0.00251487
0.00243817
0.00236288
0.00228894
0.00221631
0.00214497
0.00207486
0.00200596
0.00193822
0.00187162
0.0018061
0.00174165
0.00167822
0.00161582
0.00155441
0.00149398
0.00143445
0.00137575
0.00131776
0.00126043
0.00120389
0.00114851
0.00109488
0.00104342
0.000993859
0.000944567
0.000891965
0.000830214
0.000751599
0.000648774
0.000520003
0.000375185
0.000235748
0.000124401
5.25734e-05
1.6594e-05
3.5274e-06
4.36233e-07
2.58105e-08
5.78475e-10
4.00223e-12
1.97539e-13
1.91911e-13
1.91848e-13
1.91291e-13
1.88879e-13
1.83234e-13
1.74174e-13
1.62865e-13
1.51001e-13
1.39836e-13
1.29809e-13
1.20751e-13
1.12268e-13
1.04005e-13
9.57513e-14
8.7431e-14
7.90625e-14
7.07013e-14
6.24005e-14
5.41942e-14
4.60961e-14
3.81064e-14
3.02277e-14
2.24963e-14
1.50562e-14
8.31587e-15
3.14726e-15
5.46476e-16
2.81285e-17
6.0389e-18
5.85316e-18
5.85047e-18
5.85045e-18
5.85045e-18
5.85045e-18
5.85045e-18
0.0150296
0.0150296
0.0150296
0.0150296
0.0150296
0.0150296
0.0150296
0.0150296
0.0150296
0.0150296
0.0150296
0.0150296
0.0150296
0.0150296
0.0150296
0.0150296
0.0150295
0.0150286
0.0150247
0.0150137
0.0149902
0.0149482
0.0148824
0.0147883
0.0146633
0.0145064
0.0143184
0.0141011
0.0138577
0.0135917
0.013307
0.0130076
0.0126972
0.0123794
0.0120571
0.0117331
0.0114096
0.0110887
0.0107718
0.0104602
0.0101549
0.00985662
0.0095659
0.00928313
0.00900854
0.00874228
0.00848438
0.00823481
0.00799348
0.00776026
0.00753499
0.00731746
0.00710747
0.00690479
0.00670916
0.00652032
0.006338
0.00616192
0.00599178
0.00582729
0.00566817
0.00551411
0.00536484
0.00522012
0.00507973
0.00494344
0.00481103
0.00468232
0.00455712
0.00443525
0.00431656
0.0042009
0.00408813
0.00397812
0.00387077
0.00376594
0.00366354
0.00356347
0.00346564
0.00336995
0.00327633
0.00318469
0.00309497
0.00300708
0.00292096
0.00283656
0.0027538
0.00267263
0.002593
0.00251487
0.00243817
0.00236288
0.00228894
0.00221631
0.00214497
0.00207486
0.00200596
0.00193822
0.00187162
0.0018061
0.00174165
0.00167822
0.00161582
0.00155441
0.00149398
0.00143445
0.00137575
0.00131776
0.00126043
0.00120389
0.00114851
0.00109488
0.00104342
0.000993859
0.000944567
0.000891965
0.000830214
0.000751599
0.000648775
0.000520004
0.000375187
0.000235751
0.000124403
5.25745e-05
1.65946e-05
3.52757e-06
4.36266e-07
2.58136e-08
5.78575e-10
4.00314e-12
1.97541e-13
1.91911e-13
1.91848e-13
1.91291e-13
1.88879e-13
1.83233e-13
1.74174e-13
1.62865e-13
1.51e-13
1.39836e-13
1.29809e-13
1.20751e-13
1.12268e-13
1.04005e-13
9.57513e-14
8.7431e-14
7.90626e-14
7.07013e-14
6.24005e-14
5.41943e-14
4.60962e-14
3.81065e-14
3.02278e-14
2.24963e-14
1.50562e-14
8.31591e-15
3.14729e-15
5.46485e-16
2.81292e-17
6.0389e-18
5.85316e-18
5.85047e-18
5.85045e-18
5.85045e-18
5.85045e-18
5.85045e-18
0.0150296
0.0150296
0.0150296
0.0150296
0.0150296
0.0150296
0.0150296
0.0150296
0.0150296
0.0150296
0.0150296
0.0150296
0.0150296
0.0150296
0.0150296
0.0150296
0.0150295
0.0150286
0.0150247
0.0150137
0.0149902
0.0149482
0.0148824
0.0147883
0.0146633
0.0145064
0.0143184
0.0141011
0.0138577
0.0135917
0.013307
0.0130076
0.0126972
0.0123793
0.0120571
0.0117331
0.0114096
0.0110887
0.0107718
0.0104602
0.0101549
0.00985662
0.0095659
0.00928312
0.00900854
0.00874228
0.00848438
0.00823481
0.00799348
0.00776026
0.00753499
0.00731746
0.00710747
0.00690479
0.00670916
0.00652032
0.006338
0.00616192
0.00599178
0.00582729
0.00566816
0.00551411
0.00536484
0.00522012
0.00507973
0.00494344
0.00481103
0.00468232
0.00455712
0.00443525
0.00431656
0.00420089
0.00408813
0.00397812
0.00387076
0.00376594
0.00366354
0.00356347
0.00346564
0.00336995
0.00327633
0.00318469
0.00309496
0.00300708
0.00292096
0.00283656
0.0027538
0.00267263
0.002593
0.00251487
0.00243817
0.00236288
0.00228894
0.00221631
0.00214497
0.00207486
0.00200596
0.00193822
0.00187162
0.0018061
0.00174165
0.00167822
0.00161582
0.00155441
0.00149398
0.00143445
0.00137575
0.00131776
0.00126043
0.00120389
0.00114851
0.00109488
0.00104342
0.000993858
0.000944566
0.000891964
0.000830213
0.000751598
0.000648773
0.000520002
0.000375185
0.000235749
0.000124402
5.25742e-05
1.65945e-05
3.52758e-06
4.36272e-07
2.58143e-08
5.78603e-10
4.00343e-12
1.97541e-13
1.91911e-13
1.91848e-13
1.91291e-13
1.88879e-13
1.83234e-13
1.74174e-13
1.62865e-13
1.51001e-13
1.39836e-13
1.29809e-13
1.20751e-13
1.12268e-13
1.04006e-13
9.57514e-14
8.74311e-14
7.90627e-14
7.07014e-14
6.24006e-14
5.41944e-14
4.60963e-14
3.81066e-14
3.02278e-14
2.24964e-14
1.50563e-14
8.31596e-15
3.14731e-15
5.46493e-16
2.81298e-17
6.03891e-18
5.85316e-18
5.85047e-18
5.85045e-18
5.85045e-18
5.85045e-18
5.85045e-18
0.0150296
0.0150296
0.0150296
0.0150296
0.0150296
0.0150296
0.0150296
0.0150296
0.0150296
0.0150296
0.0150296
0.0150296
0.0150296
0.0150296
0.0150296
0.0150296
0.0150295
0.0150286
0.0150247
0.0150137
0.0149902
0.0149482
0.0148824
0.0147883
0.0146633
0.0145064
0.0143184
0.0141011
0.0138577
0.0135917
0.013307
0.0130076
0.0126972
0.0123793
0.0120571
0.0117331
0.0114096
0.0110887
0.0107718
0.0104602
0.0101549
0.00985662
0.0095659
0.00928312
0.00900854
0.00874228
0.00848438
0.00823481
0.00799348
0.00776026
0.00753498
0.00731746
0.00710747
0.00690478
0.00670915
0.00652032
0.006338
0.00616192
0.00599178
0.00582729
0.00566816
0.00551411
0.00536484
0.00522012
0.00507972
0.00494343
0.00481103
0.00468232
0.00455712
0.00443525
0.00431656
0.00420089
0.00408813
0.00397812
0.00387076
0.00376594
0.00366354
0.00356347
0.00346564
0.00336995
0.00327633
0.00318469
0.00309496
0.00300708
0.00292096
0.00283655
0.0027538
0.00267263
0.002593
0.00251487
0.00243817
0.00236288
0.00228894
0.00221631
0.00214497
0.00207486
0.00200596
0.00193822
0.00187162
0.0018061
0.00174165
0.00167822
0.00161582
0.00155441
0.00149398
0.00143445
0.00137575
0.00131776
0.00126043
0.00120388
0.00114851
0.00109488
0.00104342
0.000993857
0.000944564
0.000891962
0.000830211
0.000751595
0.000648769
0.000519998
0.000375181
0.000235745
0.000124399
5.25731e-05
1.65942e-05
3.52753e-06
4.36269e-07
2.58143e-08
5.7861e-10
4.00354e-12
1.97542e-13
1.91912e-13
1.91848e-13
1.91291e-13
1.8888e-13
1.83234e-13
1.74174e-13
1.62866e-13
1.51001e-13
1.39836e-13
1.2981e-13
1.20751e-13
1.12268e-13
1.04006e-13
9.57516e-14
8.74313e-14
7.90629e-14
7.07016e-14
6.24008e-14
5.41945e-14
4.60964e-14
3.81067e-14
3.02279e-14
2.24965e-14
1.50563e-14
8.316e-15
3.14734e-15
5.46502e-16
2.81304e-17
6.03892e-18
5.85316e-18
5.85047e-18
5.85045e-18
5.85045e-18
5.85045e-18
5.85045e-18
0.0150296
0.0150296
0.0150296
0.0150296
0.0150296
0.0150296
0.0150296
0.0150296
0.0150296
0.0150296
0.0150296
0.0150296
0.0150296
0.0150296
0.0150296
0.0150296
0.0150295
0.0150286
0.0150247
0.0150137
0.0149902
0.0149482
0.0148824
0.0147883
0.0146633
0.0145064
0.0143184
0.0141011
0.0138577
0.0135917
0.013307
0.0130076
0.0126972
0.0123793
0.0120571
0.0117331
0.0114096
0.0110887
0.0107718
0.0104602
0.0101549
0.00985662
0.00956589
0.00928312
0.00900854
0.00874227
0.00848437
0.0082348
0.00799348
0.00776026
0.00753498
0.00731746
0.00710747
0.00690478
0.00670915
0.00652032
0.006338
0.00616192
0.00599178
0.00582729
0.00566816
0.0055141
0.00536484
0.00522012
0.00507972
0.00494343
0.00481103
0.00468232
0.00455711
0.00443525
0.00431655
0.00420089
0.00408812
0.00397812
0.00387076
0.00376594
0.00366354
0.00356347
0.00346564
0.00336995
0.00327633
0.00318469
0.00309496
0.00300708
0.00292096
0.00283655
0.0027538
0.00267263
0.002593
0.00251487
0.00243817
0.00236288
0.00228894
0.00221631
0.00214497
0.00207486
0.00200596
0.00193822
0.00187162
0.0018061
0.00174165
0.00167822
0.00161582
0.00155441
0.00149397
0.00143445
0.00137575
0.00131775
0.00126042
0.00120388
0.00114851
0.00109488
0.00104341
0.000993856
0.000944563
0.000891961
0.000830208
0.000751591
0.000648764
0.000519992
0.000375174
0.00023574
0.000124396
5.25714e-05
1.65936e-05
3.52741e-06
4.36257e-07
2.58139e-08
5.78609e-10
4.00358e-12
1.97543e-13
1.91912e-13
1.91849e-13
1.91292e-13
1.88881e-13
1.83235e-13
1.74175e-13
1.62866e-13
1.51002e-13
1.39837e-13
1.2981e-13
1.20752e-13
1.12268e-13
1.04006e-13
9.57518e-14
8.74315e-14
7.9063e-14
7.07017e-14
6.24009e-14
5.41946e-14
4.60964e-14
3.81068e-14
3.0228e-14
2.24965e-14
1.50564e-14
8.31604e-15
3.14737e-15
5.4651e-16
2.81309e-17
6.03892e-18
5.85316e-18
5.85047e-18
5.85045e-18
5.85045e-18
5.85045e-18
5.85045e-18
0.0150296
0.0150296
0.0150296
0.0150296
0.0150296
0.0150296
0.0150296
0.0150296
0.0150296
0.0150296
0.0150296
0.0150296
0.0150296
0.0150296
0.0150296
0.0150296
0.0150295
0.0150286
0.0150247
0.0150137
0.0149902
0.0149482
0.0148824
0.0147883
0.0146633
0.0145064
0.0143184
0.0141011
0.0138577
0.0135917
0.013307
0.0130076
0.0126972
0.0123793
0.0120571
0.0117331
0.0114096
0.0110887
0.0107718
0.0104602
0.0101549
0.00985661
0.00956589
0.00928312
0.00900854
0.00874227
0.00848437
0.0082348
0.00799347
0.00776026
0.00753498
0.00731746
0.00710747
0.00690478
0.00670915
0.00652031
0.006338
0.00616192
0.00599178
0.00582729
0.00566816
0.0055141
0.00536484
0.00522012
0.00507972
0.00494343
0.00481103
0.00468232
0.00455711
0.00443524
0.00431655
0.00420089
0.00408812
0.00397812
0.00387076
0.00376594
0.00366354
0.00356347
0.00346564
0.00336995
0.00327633
0.00318469
0.00309496
0.00300708
0.00292096
0.00283655
0.0027538
0.00267263
0.002593
0.00251487
0.00243817
0.00236287
0.00228894
0.00221631
0.00214497
0.00207486
0.00200596
0.00193822
0.00187161
0.0018061
0.00174164
0.00167822
0.00161582
0.00155441
0.00149397
0.00143445
0.00137575
0.00131775
0.00126042
0.00120388
0.00114851
0.00109488
0.00104341
0.000993855
0.000944562
0.000891959
0.000830206
0.000751588
0.000648759
0.000519986
0.000375168
0.000235735
0.000124393
5.25697e-05
1.6593e-05
3.52727e-06
4.3624e-07
2.5813e-08
5.78594e-10
4.00353e-12
1.97544e-13
1.91913e-13
1.9185e-13
1.91293e-13
1.88881e-13
1.83235e-13
1.74176e-13
1.62867e-13
1.51002e-13
1.39837e-13
1.2981e-13
1.20752e-13
1.12268e-13
1.04006e-13
9.5752e-14
8.74316e-14
7.90632e-14
7.07019e-14
6.2401e-14
5.41947e-14
4.60965e-14
3.81069e-14
3.02281e-14
2.24966e-14
1.50564e-14
8.31609e-15
3.14739e-15
5.46519e-16
2.81315e-17
6.03893e-18
5.85316e-18
5.85047e-18
5.85045e-18
5.85045e-18
5.85045e-18
5.85045e-18
0.0150296
0.0150296
0.0150296
0.0150296
0.0150296
0.0150296
0.0150296
0.0150296
0.0150296
0.0150296
0.0150296
0.0150296
0.0150296
0.0150296
0.0150296
0.0150296
0.0150295
0.0150286
0.0150247
0.0150137
0.0149902
0.0149482
0.0148824
0.0147883
0.0146633
0.0145064
0.0143184
0.0141011
0.0138577
0.0135917
0.013307
0.0130076
0.0126972
0.0123793
0.0120571
0.0117331
0.0114096
0.0110887
0.0107718
0.0104602
0.0101549
0.00985661
0.00956589
0.00928312
0.00900853
0.00874227
0.00848437
0.0082348
0.00799347
0.00776025
0.00753498
0.00731746
0.00710747
0.00690478
0.00670915
0.00652031
0.006338
0.00616192
0.00599178
0.00582729
0.00566816
0.0055141
0.00536484
0.00522012
0.00507972
0.00494343
0.00481103
0.00468232
0.00455711
0.00443524
0.00431655
0.00420089
0.00408812
0.00397812
0.00387076
0.00376594
0.00366354
0.00356347
0.00346564
0.00336995
0.00327633
0.00318469
0.00309496
0.00300707
0.00292096
0.00283655
0.00275379
0.00267263
0.002593
0.00251486
0.00243817
0.00236287
0.00228894
0.00221631
0.00214497
0.00207486
0.00200596
0.00193822
0.00187161
0.0018061
0.00174164
0.00167822
0.00161582
0.00155441
0.00149397
0.00143445
0.00137575
0.00131775
0.00126042
0.00120388
0.00114851
0.00109488
0.00104341
0.000993854
0.000944561
0.000891958
0.000830204
0.000751585
0.000648756
0.000519982
0.000375164
0.000235731
0.00012439
5.25684e-05
1.65925e-05
3.52716e-06
4.36225e-07
2.58121e-08
5.78573e-10
4.0034e-12
1.97544e-13
1.91914e-13
1.9185e-13
1.91294e-13
1.88882e-13
1.83236e-13
1.74176e-13
1.62868e-13
1.51003e-13
1.39838e-13
1.29811e-13
1.20752e-13
1.12269e-13
1.04007e-13
9.57522e-14
8.74318e-14
7.90633e-14
7.0702e-14
6.24011e-14
5.41948e-14
4.60966e-14
3.8107e-14
3.02281e-14
2.24967e-14
1.50565e-14
8.31613e-15
3.14742e-15
5.46526e-16
2.81321e-17
6.03893e-18
5.85316e-18
5.85047e-18
5.85045e-18
5.85045e-18
5.85045e-18
5.85045e-18
0.0150296
0.0150296
0.0150296
0.0150296
0.0150296
0.0150296
0.0150296
0.0150296
0.0150296
0.0150296
0.0150296
0.0150296
0.0150296
0.0150296
0.0150296
0.0150296
0.0150295
0.0150286
0.0150247
0.0150137
0.0149902
0.0149482
0.0148824
0.0147883
0.0146633
0.0145064
0.0143184
0.0141011
0.0138577
0.0135917
0.013307
0.0130076
0.0126972
0.0123793
0.0120571
0.0117331
0.0114096
0.0110887
0.0107718
0.0104602
0.0101549
0.00985661
0.00956589
0.00928311
0.00900853
0.00874227
0.00848437
0.0082348
0.00799347
0.00776025
0.00753498
0.00731745
0.00710746
0.00690478
0.00670915
0.00652031
0.006338
0.00616191
0.00599178
0.00582729
0.00566816
0.0055141
0.00536484
0.00522011
0.00507972
0.00494343
0.00481103
0.00468232
0.00455711
0.00443524
0.00431655
0.00420089
0.00408812
0.00397812
0.00387076
0.00376594
0.00366354
0.00356347
0.00346564
0.00336995
0.00327633
0.00318469
0.00309496
0.00300707
0.00292096
0.00283655
0.00275379
0.00267263
0.002593
0.00251486
0.00243817
0.00236287
0.00228893
0.00221631
0.00214497
0.00207486
0.00200596
0.00193822
0.00187161
0.0018061
0.00174164
0.00167822
0.00161582
0.00155441
0.00149397
0.00143445
0.00137575
0.00131775
0.00126042
0.00120388
0.00114851
0.00109487
0.00104341
0.000993853
0.00094456
0.000891957
0.000830203
0.000751583
0.000648753
0.000519979
0.000375161
0.000235729
0.000124388
5.25675e-05
1.65922e-05
3.52708e-06
4.36214e-07
2.58114e-08
5.78557e-10
4.00329e-12
1.97545e-13
1.91914e-13
1.91851e-13
1.91294e-13
1.88882e-13
1.83237e-13
1.74177e-13
1.62868e-13
1.51003e-13
1.39838e-13
1.29811e-13
1.20753e-13
1.12269e-13
1.04007e-13
9.57524e-14
8.7432e-14
7.90635e-14
7.07021e-14
6.24013e-14
5.4195e-14
4.60968e-14
3.81071e-14
3.02282e-14
2.24967e-14
1.50566e-14
8.31618e-15
3.14745e-15
5.46534e-16
2.81326e-17
6.03894e-18
5.85316e-18
5.85047e-18
5.85045e-18
5.85045e-18
5.85045e-18
5.85045e-18
0.0150296
0.0150296
0.0150296
0.0150296
0.0150296
0.0150296
0.0150296
0.0150296
0.0150296
0.0150296
0.0150296
0.0150296
0.0150296
0.0150296
0.0150296
0.0150296
0.0150295
0.0150286
0.0150247
0.0150137
0.0149902
0.0149482
0.0148824
0.0147883
0.0146633
0.0145064
0.0143184
0.0141011
0.0138577
0.0135916
0.013307
0.0130076
0.0126972
0.0123793
0.0120571
0.0117331
0.0114096
0.0110887
0.0107718
0.0104602
0.0101549
0.00985661
0.00956589
0.00928311
0.00900853
0.00874227
0.00848437
0.0082348
0.00799347
0.00776025
0.00753498
0.00731745
0.00710746
0.00690478
0.00670915
0.00652031
0.00633799
0.00616191
0.00599177
0.00582729
0.00566816
0.0055141
0.00536483
0.00522011
0.00507972
0.00494343
0.00481103
0.00468232
0.00455711
0.00443524
0.00431655
0.00420089
0.00408812
0.00397812
0.00387076
0.00376594
0.00366354
0.00356347
0.00346564
0.00336995
0.00327633
0.00318469
0.00309496
0.00300707
0.00292096
0.00283655
0.00275379
0.00267263
0.002593
0.00251486
0.00243817
0.00236287
0.00228893
0.00221631
0.00214497
0.00207486
0.00200596
0.00193822
0.00187161
0.0018061
0.00174164
0.00167822
0.00161581
0.00155441
0.00149397
0.00143445
0.00137575
0.00131775
0.00126042
0.00120388
0.00114851
0.00109487
0.00104341
0.000993853
0.000944559
0.000891956
0.000830202
0.000751582
0.000648752
0.000519977
0.000375159
0.000235727
0.000124387
5.25669e-05
1.6592e-05
3.52703e-06
4.36207e-07
2.58109e-08
5.78546e-10
4.00321e-12
1.97545e-13
1.91915e-13
1.91852e-13
1.91295e-13
1.88883e-13
1.83237e-13
1.74177e-13
1.62869e-13
1.51003e-13
1.39838e-13
1.29811e-13
1.20753e-13
1.12269e-13
1.04007e-13
9.57527e-14
8.74322e-14
7.90637e-14
7.07023e-14
6.24014e-14
5.41951e-14
4.60969e-14
3.81072e-14
3.02283e-14
2.24968e-14
1.50566e-14
8.31623e-15
3.14747e-15
5.46542e-16
2.81331e-17
6.03894e-18
5.85316e-18
5.85047e-18
5.85045e-18
5.85045e-18
5.85045e-18
5.85045e-18
0.0150296
0.0150296
0.0150296
0.0150296
0.0150296
0.0150296
0.0150296
0.0150296
0.0150296
0.0150296
0.0150296
0.0150296
0.0150296
0.0150296
0.0150296
0.0150296
0.0150295
0.0150286
0.0150247
0.0150137
0.0149902
0.0149482
0.0148824
0.0147883
0.0146633
0.0145064
0.0143184
0.0141011
0.0138577
0.0135916
0.013307
0.0130076
0.0126972
0.0123793
0.0120571
0.011733
0.0114096
0.0110887
0.0107718
0.0104602
0.0101549
0.00985661
0.00956589
0.00928311
0.00900853
0.00874227
0.00848437
0.0082348
0.00799347
0.00776025
0.00753498
0.00731745
0.00710746
0.00690478
0.00670915
0.00652031
0.00633799
0.00616191
0.00599177
0.00582729
0.00566816
0.0055141
0.00536483
0.00522011
0.00507972
0.00494343
0.00481103
0.00468232
0.00455711
0.00443524
0.00431655
0.00420089
0.00408812
0.00397812
0.00387076
0.00376593
0.00366354
0.00356347
0.00346563
0.00336995
0.00327633
0.00318469
0.00309496
0.00300707
0.00292096
0.00283655
0.00275379
0.00267263
0.002593
0.00251486
0.00243817
0.00236287
0.00228893
0.00221631
0.00214497
0.00207486
0.00200596
0.00193822
0.00187161
0.0018061
0.00174164
0.00167822
0.00161581
0.00155441
0.00149397
0.00143445
0.00137575
0.00131775
0.00126042
0.00120388
0.00114851
0.00109487
0.00104341
0.000993852
0.000944559
0.000891955
0.000830201
0.000751581
0.00064875
0.000519975
0.000375157
0.000235726
0.000124386
5.25665e-05
1.65918e-05
3.52699e-06
4.36202e-07
2.58106e-08
5.78538e-10
4.00316e-12
1.97545e-13
1.91915e-13
1.91852e-13
1.91295e-13
1.88883e-13
1.83238e-13
1.74178e-13
1.62869e-13
1.51004e-13
1.39839e-13
1.29812e-13
1.20753e-13
1.1227e-13
1.04007e-13
9.57529e-14
8.74325e-14
7.90639e-14
7.07025e-14
6.24016e-14
5.41952e-14
4.6097e-14
3.81073e-14
3.02284e-14
2.24969e-14
1.50567e-14
8.31627e-15
3.1475e-15
5.46549e-16
2.81336e-17
6.03895e-18
5.85316e-18
5.85047e-18
5.85045e-18
5.85045e-18
5.85045e-18
5.85045e-18
0.0150296
0.0150296
0.0150296
0.0150296
0.0150296
0.0150296
0.0150296
0.0150296
0.0150296
0.0150296
0.0150296
0.0150296
0.0150296
0.0150296
0.0150296
0.0150296
0.0150295
0.0150286
0.0150247
0.0150137
0.0149902
0.0149482
0.0148824
0.0147883
0.0146633
0.0145064
0.0143183
0.0141011
0.0138577
0.0135916
0.013307
0.0130076
0.0126972
0.0123793
0.012057
0.011733
0.0114096
0.0110887
0.0107718
0.0104602
0.0101549
0.00985661
0.00956588
0.00928311
0.00900853
0.00874227
0.00848437
0.0082348
0.00799347
0.00776025
0.00753497
0.00731745
0.00710746
0.00690478
0.00670915
0.00652031
0.00633799
0.00616191
0.00599177
0.00582728
0.00566816
0.0055141
0.00536483
0.00522011
0.00507972
0.00494343
0.00481103
0.00468232
0.00455711
0.00443524
0.00431655
0.00420089
0.00408812
0.00397812
0.00387076
0.00376593
0.00366354
0.00356347
0.00346563
0.00336995
0.00327633
0.00318469
0.00309496
0.00300707
0.00292096
0.00283655
0.00275379
0.00267263
0.002593
0.00251486
0.00243817
0.00236287
0.00228893
0.00221631
0.00214497
0.00207486
0.00200596
0.00193822
0.00187161
0.0018061
0.00174164
0.00167822
0.00161581
0.00155441
0.00149397
0.00143445
0.00137575
0.00131775
0.00126042
0.00120388
0.00114851
0.00109487
0.00104341
0.000993851
0.000944558
0.000891955
0.0008302
0.00075158
0.000648749
0.000519973
0.000375155
0.000235724
0.000124385
5.25661e-05
1.65917e-05
3.52696e-06
4.36197e-07
2.58103e-08
5.78531e-10
4.00311e-12
1.97546e-13
1.91916e-13
1.91852e-13
1.91296e-13
1.88884e-13
1.83238e-13
1.74178e-13
1.62869e-13
1.51004e-13
1.39839e-13
1.29812e-13
1.20754e-13
1.1227e-13
1.04008e-13
9.57532e-14
8.74327e-14
7.90641e-14
7.07027e-14
6.24017e-14
5.41954e-14
4.60971e-14
3.81074e-14
3.02285e-14
2.2497e-14
1.50567e-14
8.31632e-15
3.14753e-15
5.46556e-16
2.8134e-17
6.03895e-18
5.85316e-18
5.85047e-18
5.85045e-18
5.85045e-18
5.85045e-18
5.85045e-18
0.0150295
0.0150295
0.0150295
0.0150295
0.0150295
0.0150295
0.0150295
0.0150295
0.0150295
0.0150295
0.0150295
0.0150295
0.0150295