/*--------------------------------*- C++ -*----------------------------------*\
  =========                 |
  \\      /  F ield         | OpenFOAM: The Open Source CFD Toolbox
   \\    /   O peration     | Website:  https://openfoam.org
    \\  /    A nd           | Version:  13
     \\/     M anipulation  |
\*---------------------------------------------------------------------------*/
FoamFile
{
    format      ascii;
    class       volScalarField;
    location    "0.0012";
    object      H2O;
}
// * * * * * * * * * * * * * * * * * * * * * * * * * * * * * * * * * * * * * //

dimensions      [];

internalField   nonuniform List<scalar> 
33334
(
0.0123046
0.0123046
0.0123046
0.0123046
0.0123046
0.0123046
0.0123046
0.0123046
0.0123046
0.0123046
0.0123046
0.0123046
0.0123046
0.0123046
0.0123046
0.0123046
0.0123045
0.0123038
0.0123006
0.0122916
0.0122723
0.012238
0.0121841
0.0121071
0.0120047
0.0118763
0.0117223
0.0115445
0.0113452
0.0111274
0.0108943
0.0106492
0.0103951
0.0101349
0.00987102
0.00960577
0.00934098
0.00907823
0.00881879
0.00856369
0.00831374
0.00806953
0.00783152
0.00760001
0.00737521
0.00715722
0.00694608
0.00674175
0.00654418
0.00635324
0.00616881
0.00599072
0.0058188
0.00565286
0.0054927
0.0053381
0.00518883
0.00504468
0.00490538
0.00477071
0.00464043
0.00451431
0.0043921
0.00427362
0.00415867
0.00404709
0.00393869
0.00383332
0.00373081
0.00363103
0.00353386
0.00343917
0.00334684
0.00325678
0.00316888
0.00308306
0.00299923
0.0029173
0.0028372
0.00275886
0.00268221
0.00260719
0.00253373
0.00246177
0.00239127
0.00232216
0.00225441
0.00218796
0.00212276
0.00205879
0.001996
0.00193435
0.00187382
0.00181436
0.00175595
0.00169855
0.00164214
0.00158668
0.00153215
0.00147851
0.00142574
0.00137382
0.00132273
0.00127245
0.00122297
0.00117424
0.00112618
0.0010787
0.00103176
0.000985468
0.000940137
0.00089623
0.000854102
0.000813533
0.000773173
0.000730089
0.000679493
0.000615067
0.000530809
0.000425326
0.00030676
0.000192671
0.000101622
4.29254e-05
1.35413e-05
2.87667e-06
3.55494e-07
2.10146e-08
4.70485e-10
3.25234e-12
1.61703e-13
1.57139e-13
1.57087e-13
1.5663e-13
1.54652e-13
1.50026e-13
1.42605e-13
1.33345e-13
1.2363e-13
1.14489e-13
1.06281e-13
9.88644e-14
9.19187e-14
8.51539e-14
7.83955e-14
7.1583e-14
6.47312e-14
5.78853e-14
5.1089e-14
4.43701e-14
3.77398e-14
3.11984e-14
2.47478e-14
1.84178e-14
1.23264e-14
6.80808e-15
2.57655e-15
4.47359e-16
2.30258e-17
4.94396e-18
4.79193e-18
4.78973e-18
4.78971e-18
4.78971e-18
4.78971e-18
4.78971e-18
0.0123046
0.0123046
0.0123046
0.0123046
0.0123046
0.0123046
0.0123046
0.0123046
0.0123046
0.0123046
0.0123046
0.0123046
0.0123046
0.0123046
0.0123046
0.0123046
0.0123045
0.0123038
0.0123006
0.0122916
0.0122723
0.012238
0.0121841
0.0121071
0.0120047
0.0118763
0.0117223
0.0115445
0.0113452
0.0111274
0.0108943
0.0106492
0.0103951
0.0101349
0.00987103
0.00960577
0.00934098
0.00907823
0.0088188
0.0085637
0.00831374
0.00806954
0.00783152
0.00760002
0.00737522
0.00715723
0.00694609
0.00674176
0.00654419
0.00635325
0.00616882
0.00599074
0.00581882
0.00565288
0.00549272
0.00533812
0.00518885
0.00504469
0.0049054
0.00477073
0.00464046
0.00451433
0.00439212
0.00427364
0.0041587
0.00404712
0.00393872
0.00383334
0.00373084
0.00363106
0.00353389
0.0034392
0.00334687
0.00325681
0.00316892
0.00308309
0.00299926
0.00291733
0.00283724
0.0027589
0.00268225
0.00260722
0.00253376
0.00246181
0.0023913
0.0023222
0.00225444
0.00218799
0.0021228
0.00205883
0.00199604
0.00193439
0.00187386
0.0018144
0.00175599
0.00169859
0.00164218
0.00158672
0.00153219
0.00147855
0.00142578
0.00137386
0.00132277
0.00127249
0.00122301
0.00117428
0.00112622
0.00107874
0.0010318
0.000985511
0.00094018
0.000896272
0.000854143
0.000813573
0.000773214
0.000730135
0.000679549
0.000615139
0.000530898
0.000425425
0.000306855
0.000192745
0.000101668
4.29472e-05
1.3549e-05
2.87851e-06
3.55759e-07
2.10337e-08
4.71014e-10
3.2566e-12
1.61708e-13
1.57136e-13
1.57084e-13
1.56627e-13
1.5465e-13
1.50025e-13
1.42605e-13
1.33345e-13
1.2363e-13
1.14489e-13
1.0628e-13
9.88639e-14
9.19182e-14
8.51534e-14
7.8395e-14
7.15826e-14
6.47308e-14
5.7885e-14
5.10887e-14
4.43699e-14
3.77396e-14
3.11982e-14
2.47477e-14
1.84178e-14
1.23264e-14
6.80807e-15
2.57655e-15
4.47364e-16
2.30263e-17
4.94397e-18
4.79193e-18
4.78973e-18
4.78971e-18
4.78971e-18
4.78971e-18
4.78971e-18
0.0123046
0.0123046
0.0123046
0.0123046
0.0123046
0.0123046
0.0123046
0.0123046
0.0123046
0.0123046
0.0123046
0.0123046
0.0123046
0.0123046
0.0123046
0.0123046
0.0123045
0.0123038
0.0123006
0.0122916
0.0122723
0.012238
0.0121841
0.0121071
0.0120047
0.0118763
0.0117223
0.0115445
0.0113452
0.0111274
0.0108943
0.0106492
0.0103951
0.0101349
0.00987102
0.00960577
0.00934098
0.00907823
0.0088188
0.0085637
0.00831374
0.00806954
0.00783153
0.00760002
0.00737522
0.00715723
0.00694609
0.00674177
0.0065442
0.00635326
0.00616883
0.00599075
0.00581883
0.00565289
0.00549273
0.00533813
0.00518887
0.00504471
0.00490542
0.00477075
0.00464047
0.00451435
0.00439214
0.00427366
0.00415872
0.00404714
0.00393874
0.00383337
0.00373086
0.00363109
0.00353392
0.00343922
0.0033469
0.00325684
0.00316895
0.00308313
0.00299929
0.00291737
0.00283727
0.00275893
0.00268228
0.00260726
0.0025338
0.00246184
0.00239134
0.00232224
0.00225448
0.00218803
0.00212284
0.00205887
0.00199608
0.00193444
0.0018739
0.00181444
0.00175603
0.00169864
0.00164223
0.00158677
0.00153224
0.0014786
0.00142583
0.00137391
0.00132282
0.00127254
0.00122306
0.00117433
0.00112627
0.00107879
0.00103185
0.000985564
0.000940233
0.000896324
0.000854193
0.000813622
0.000773265
0.000730193
0.000679622
0.000615234
0.000531019
0.000425565
0.000306995
0.00019286
0.000101744
4.29856e-05
1.35632e-05
2.88203e-06
3.56262e-07
2.10682e-08
4.71918e-10
3.26358e-12
1.61713e-13
1.57129e-13
1.57077e-13
1.5662e-13
1.54645e-13
1.50021e-13
1.42602e-13
1.33343e-13
1.23628e-13
1.14487e-13
1.06278e-13
9.88618e-14
9.19162e-14
8.51515e-14
7.83934e-14
7.15812e-14
6.47296e-14
5.78839e-14
5.10878e-14
4.43691e-14
3.7739e-14
3.11977e-14
2.47473e-14
1.84175e-14
1.23263e-14
6.80804e-15
2.57656e-15
4.47371e-16
2.30269e-17
4.94398e-18
4.79193e-18
4.78973e-18
4.78971e-18
4.78971e-18
4.78971e-18
4.78971e-18
0.0123046
0.0123046
0.0123046
0.0123046
0.0123046
0.0123046
0.0123046
0.0123046
0.0123046
0.0123046
0.0123046
0.0123046
0.0123046
0.0123046
0.0123046
0.0123046
0.0123045
0.0123038
0.0123006
0.0122916
0.0122723
0.012238
0.0121841
0.012107
0.0120047
0.0118763
0.0117223
0.0115445
0.0113452
0.0111274
0.0108943
0.0106492
0.0103951
0.0101349
0.00987102
0.00960577
0.00934098
0.00907823
0.0088188
0.0085637
0.00831374
0.00806954
0.00783153
0.00760002
0.00737522
0.00715723
0.00694609
0.00674177
0.0065442
0.00635326
0.00616883
0.00599075
0.00581883
0.00565289
0.00549273
0.00533813
0.00518887
0.00504471
0.00490542
0.00477076
0.00464048
0.00451435
0.00439215
0.00427367
0.00415873
0.00404715
0.00393875
0.00383338
0.00373087
0.0036311
0.00353393
0.00343923
0.00334691
0.00325685
0.00316896
0.00308314
0.00299931
0.00291738
0.00283729
0.00275895
0.0026823
0.00260728
0.00253382
0.00246186
0.00239136
0.00232226
0.0022545
0.00218805
0.00212286
0.00205889
0.0019961
0.00193446
0.00187392
0.00181447
0.00175606
0.00169866
0.00164225
0.0015868
0.00153227
0.00147863
0.00142586
0.00137394
0.00132284
0.00127257
0.00122309
0.00117436
0.0011263
0.00107882
0.00103189
0.000985597
0.000940265
0.000896355
0.000854223
0.000813652
0.000773296
0.000730229
0.000679668
0.000615297
0.000531102
0.000425665
0.000307099
0.000192949
0.000101806
4.30187e-05
1.35761e-05
2.88532e-06
3.56744e-07
2.11016e-08
4.72786e-10
3.27017e-12
1.61717e-13
1.57122e-13
1.5707e-13
1.56614e-13
1.54639e-13
1.50016e-13
1.42598e-13
1.3334e-13
1.23625e-13
1.14485e-13
1.06276e-13
9.88594e-14
9.19139e-14
8.51496e-14
7.83917e-14
7.15797e-14
6.47284e-14
5.78829e-14
5.1087e-14
4.43685e-14
3.77385e-14
3.11974e-14
2.47471e-14
1.84174e-14
1.23263e-14
6.80805e-15
2.57658e-15
4.4738e-16
2.30275e-17
4.94398e-18
4.79193e-18
4.78973e-18
4.78971e-18
4.78971e-18
4.78971e-18
4.78971e-18
0.0123046
0.0123046
0.0123046
0.0123046
0.0123046
0.0123046
0.0123046
0.0123046
0.0123046
0.0123046
0.0123046
0.0123046
0.0123046
0.0123046
0.0123046
0.0123046
0.0123045
0.0123038
0.0123006
0.0122916
0.0122723
0.012238
0.0121841
0.012107
0.0120047
0.0118763
0.0117223
0.0115445
0.0113452
0.0111274
0.0108943
0.0106492
0.0103951
0.0101349
0.00987102
0.00960576
0.00934098
0.00907823
0.00881879
0.0085637
0.00831374
0.00806953
0.00783152
0.00760002
0.00737522
0.00715723
0.00694609
0.00674177
0.0065442
0.00635326
0.00616883
0.00599075
0.00581883
0.00565289
0.00549273
0.00533813
0.00518887
0.00504471
0.00490542
0.00477076
0.00464048
0.00451435
0.00439215
0.00427367
0.00415873
0.00404715
0.00393875
0.00383338
0.00373087
0.0036311
0.00353393
0.00343924
0.00334691
0.00325686
0.00316896
0.00308314
0.00299931
0.00291738
0.00283729
0.00275895
0.0026823
0.00260728
0.00253382
0.00246187
0.00239137
0.00232226
0.00225451
0.00218806
0.00212287
0.0020589
0.00199611
0.00193447
0.00187393
0.00181448
0.00175607
0.00169867
0.00164226
0.00158681
0.00153227
0.00147864
0.00142587
0.00137395
0.00132285
0.00127258
0.0012231
0.00117437
0.00112631
0.00107883
0.0010319
0.000985608
0.000940277
0.000896366
0.000854234
0.000813662
0.000773307
0.000730242
0.000679686
0.000615322
0.000531137
0.00042571
0.000307147
0.000192992
0.000101836
4.30359e-05
1.35831e-05
2.88719e-06
3.5703e-07
2.11223e-08
4.73343e-10
3.27451e-12
1.61721e-13
1.57118e-13
1.57066e-13
1.5661e-13
1.54635e-13
1.50013e-13
1.42596e-13
1.33337e-13
1.23623e-13
1.14483e-13
1.06274e-13
9.8858e-14
9.19128e-14
8.51486e-14
7.83909e-14
7.15791e-14
6.47279e-14
5.78825e-14
5.10867e-14
4.43683e-14
3.77384e-14
3.11974e-14
2.47471e-14
1.84174e-14
1.23263e-14
6.80809e-15
2.57661e-15
4.47388e-16
2.30281e-17
4.94399e-18
4.79193e-18
4.78973e-18
4.78971e-18
4.78971e-18
4.78971e-18
4.78971e-18
0.0123046
0.0123046
0.0123046
0.0123046
0.0123046
0.0123046
0.0123046
0.0123046
0.0123046
0.0123046
0.0123046
0.0123046
0.0123046
0.0123046
0.0123046
0.0123046
0.0123045
0.0123038
0.0123006
0.0122916
0.0122723
0.012238
0.0121841
0.012107
0.0120047
0.0118763
0.0117223
0.0115445
0.0113452
0.0111274
0.0108943
0.0106492
0.0103951
0.0101349
0.00987102
0.00960576
0.00934097
0.00907822
0.00881879
0.00856369
0.00831374
0.00806953
0.00783152
0.00760002
0.00737522
0.00715723
0.00694609
0.00674177
0.00654419
0.00635326
0.00616883
0.00599074
0.00581883
0.00565289
0.00549273
0.00533813
0.00518887
0.00504471
0.00490542
0.00477076
0.00464048
0.00451435
0.00439215
0.00427367
0.00415873
0.00404715
0.00393875
0.00383338
0.00373087
0.0036311
0.00353393
0.00343924
0.00334691
0.00325686
0.00316896
0.00308314
0.00299931
0.00291738
0.00283729
0.00275895
0.0026823
0.00260728
0.00253382
0.00246187
0.00239137
0.00232226
0.00225451
0.00218806
0.00212287
0.0020589
0.00199611
0.00193447
0.00187393
0.00181448
0.00175607
0.00169867
0.00164226
0.00158681
0.00153228
0.00147864
0.00142587
0.00137395
0.00132286
0.00127258
0.0012231
0.00117437
0.00112631
0.00107884
0.0010319
0.000985611
0.000940279
0.000896368
0.000854236
0.000813664
0.000773309
0.000730244
0.000679689
0.000615327
0.000531145
0.000425722
0.00030716
0.000193005
0.000101846
4.30414e-05
1.35854e-05
2.88785e-06
3.5714e-07
2.11309e-08
4.73592e-10
3.27659e-12
1.61724e-13
1.57116e-13
1.57064e-13
1.56608e-13
1.54634e-13
1.50012e-13
1.42595e-13
1.33336e-13
1.23623e-13
1.14482e-13
1.06274e-13
9.88577e-14
9.19125e-14
8.51484e-14
7.83907e-14
7.1579e-14
6.47278e-14
5.78825e-14
5.10867e-14
4.43683e-14
3.77385e-14
3.11974e-14
2.47471e-14
1.84175e-14
1.23263e-14
6.80813e-15
2.57663e-15
4.47395e-16
2.30286e-17
4.94399e-18
4.79193e-18
4.78973e-18
4.78971e-18
4.78971e-18
4.78971e-18
4.78971e-18
0.0123046
0.0123046
0.0123046
0.0123046
0.0123046
0.0123046
0.0123046
0.0123046
0.0123046
0.0123046
0.0123046
0.0123046
0.0123046
0.0123046
0.0123046
0.0123046
0.0123045
0.0123038
0.0123006
0.0122916
0.0122723
0.012238
0.0121841
0.012107
0.0120047
0.0118763
0.0117223
0.0115445
0.0113451
0.0111274
0.0108943
0.0106492
0.0103951
0.0101349
0.00987102
0.00960576
0.00934097
0.00907822
0.00881879
0.00856369
0.00831374
0.00806953
0.00783152
0.00760001
0.00737522
0.00715723
0.00694609
0.00674177
0.00654419
0.00635326
0.00616883
0.00599074
0.00581883
0.00565289
0.00549273
0.00533813
0.00518887
0.00504471
0.00490542
0.00477075
0.00464048
0.00451435
0.00439215
0.00427367
0.00415873
0.00404715
0.00393875
0.00383338
0.00373087
0.0036311
0.00353393
0.00343924
0.00334691
0.00325685
0.00316896
0.00308314
0.00299931
0.00291738
0.00283729
0.00275895
0.0026823
0.00260728
0.00253382
0.00246187
0.00239137
0.00232226
0.00225451
0.00218806
0.00212287
0.0020589
0.00199611
0.00193447
0.00187393
0.00181448
0.00175607
0.00169867
0.00164226
0.00158681
0.00153228
0.00147864
0.00142587
0.00137395
0.00132286
0.00127258
0.0012231
0.00117438
0.00112632
0.00107884
0.0010319
0.000985611
0.000940279
0.000896368
0.000854236
0.000813664
0.000773308
0.000730244
0.000679689
0.000615328
0.000531146
0.000425723
0.000307162
0.000193007
0.000101847
4.30423e-05
1.35858e-05
2.88799e-06
3.57168e-07
2.11334e-08
4.73674e-10
3.27734e-12
1.61725e-13
1.57116e-13
1.57064e-13
1.56608e-13
1.54634e-13
1.50012e-13
1.42595e-13
1.33336e-13
1.23623e-13
1.14482e-13
1.06274e-13
9.88577e-14
9.19125e-14
8.51484e-14
7.83907e-14
7.1579e-14
6.47278e-14
5.78825e-14
5.10868e-14
4.43684e-14
3.77385e-14
3.11975e-14
2.47472e-14
1.84176e-14
1.23264e-14
6.80817e-15
2.57665e-15
4.47402e-16
2.30291e-17
4.944e-18
4.79193e-18
4.78973e-18
4.78971e-18
4.78971e-18
4.78971e-18
4.78971e-18
0.0123046
0.0123046
0.0123046
0.0123046
0.0123046
0.0123046
0.0123046
0.0123046
0.0123046
0.0123046
0.0123046
0.0123046
0.0123046
0.0123046
0.0123046
0.0123046
0.0123045
0.0123038
0.0123006
0.0122916
0.0122723
0.012238
0.0121841
0.012107
0.0120047
0.0118763
0.0117223
0.0115444
0.0113451
0.0111274
0.0108943
0.0106492
0.0103951
0.0101349
0.00987101
0.00960576
0.00934097
0.00907822
0.00881879
0.00856369
0.00831373
0.00806953
0.00783152
0.00760001
0.00737521
0.00715723
0.00694609
0.00674176
0.00654419
0.00635326
0.00616883
0.00599074
0.00581882
0.00565289
0.00549273
0.00533813
0.00518887
0.00504471
0.00490542
0.00477075
0.00464048
0.00451435
0.00439215
0.00427367
0.00415873
0.00404715
0.00393875
0.00383338
0.00373087
0.0036311
0.00353393
0.00343924
0.00334691
0.00325685
0.00316896
0.00308314
0.00299931
0.00291738
0.00283729
0.00275895
0.0026823
0.00260728
0.00253382
0.00246187
0.00239137
0.00232226
0.00225451
0.00218806
0.00212287
0.0020589
0.00199611
0.00193447
0.00187393
0.00181448
0.00175607
0.00169867
0.00164226
0.00158681
0.00153228
0.00147864
0.00142587
0.00137395
0.00132286
0.00127258
0.0012231
0.00117438
0.00112631
0.00107884
0.0010319
0.00098561
0.000940279
0.000896368
0.000854236
0.000813663
0.000773308
0.000730243
0.000679688
0.000615326
0.000531145
0.000425721
0.000307161
0.000193006
0.000101847
4.30421e-05
1.35858e-05
2.888e-06
3.57172e-07
2.11339e-08
4.73697e-10
3.27757e-12
1.61725e-13
1.57116e-13
1.57064e-13
1.56608e-13
1.54634e-13
1.50012e-13
1.42595e-13
1.33337e-13
1.23623e-13
1.14482e-13
1.06274e-13
9.88578e-14
9.19126e-14
8.51485e-14
7.83908e-14
7.15791e-14
6.47279e-14
5.78826e-14
5.10869e-14
4.43685e-14
3.77386e-14
3.11975e-14
2.47473e-14
1.84176e-14
1.23264e-14
6.8082e-15
2.57668e-15
4.47409e-16
2.30296e-17
4.944e-18
4.79193e-18
4.78973e-18
4.78971e-18
4.78971e-18
4.78971e-18
4.78971e-18
0.0123046
0.0123046
0.0123046
0.0123046
0.0123046
0.0123046
0.0123046
0.0123046
0.0123046
0.0123046
0.0123046
0.0123046
0.0123046
0.0123046
0.0123046
0.0123046
0.0123045
0.0123038
0.0123006
0.0122916
0.0122723
0.012238
0.0121841
0.012107
0.0120047
0.0118763
0.0117223
0.0115444
0.0113451
0.0111274
0.0108943
0.0106492
0.0103951
0.0101349
0.00987101
0.00960575
0.00934097
0.00907822
0.00881878
0.00856369
0.00831373
0.00806953
0.00783152
0.00760001
0.00737521
0.00715723
0.00694608
0.00674176
0.00654419
0.00635326
0.00616883
0.00599074
0.00581882
0.00565289
0.00549272
0.00533813
0.00518887
0.00504471
0.00490542
0.00477075
0.00464047
0.00451435
0.00439215
0.00427367
0.00415873
0.00404715
0.00393875
0.00383337
0.00373087
0.0036311
0.00353393
0.00343923
0.00334691
0.00325685
0.00316896
0.00308314
0.00299931
0.00291738
0.00283729
0.00275895
0.0026823
0.00260728
0.00253382
0.00246187
0.00239137
0.00232226
0.00225451
0.00218806
0.00212287
0.0020589
0.00199611
0.00193447
0.00187393
0.00181448
0.00175607
0.00169867
0.00164226
0.00158681
0.00153228
0.00147864
0.00142587
0.00137395
0.00132286
0.00127258
0.0012231
0.00117437
0.00112631
0.00107884
0.0010319
0.00098561
0.000940278
0.000896367
0.000854235
0.000813662
0.000773307
0.000730242
0.000679686
0.000615324
0.000531142
0.000425718
0.000307157
0.000193003
0.000101845
4.30411e-05
1.35855e-05
2.88796e-06
3.57169e-07
2.1134e-08
4.73703e-10
3.27766e-12
1.61726e-13
1.57116e-13
1.57065e-13
1.56609e-13
1.54634e-13
1.50012e-13
1.42595e-13
1.33337e-13
1.23623e-13
1.14483e-13
1.06274e-13
9.8858e-14
9.19128e-14
8.51486e-14
7.8391e-14
7.15792e-14
6.47281e-14
5.78828e-14
5.1087e-14
4.43686e-14
3.77387e-14
3.11976e-14
2.47473e-14
1.84177e-14
1.23265e-14
6.80824e-15
2.5767e-15
4.47416e-16
2.30301e-17
4.94401e-18
4.79193e-18
4.78973e-18
4.78971e-18
4.78971e-18
4.78971e-18
4.78971e-18
0.0123046
0.0123046
0.0123046
0.0123046
0.0123046
0.0123046
0.0123046
0.0123046
0.0123046
0.0123046
0.0123046
0.0123046
0.0123046
0.0123046
0.0123046
0.0123046
0.0123045
0.0123038
0.0123006
0.0122916
0.0122723
0.012238
0.0121841
0.012107
0.0120047
0.0118763
0.0117223
0.0115444
0.0113451
0.0111274
0.0108943
0.0106492
0.0103951
0.0101349
0.00987101
0.00960575
0.00934097
0.00907822
0.00881878
0.00856369
0.00831373
0.00806952
0.00783151
0.00760001
0.00737521
0.00715722
0.00694608
0.00674176
0.00654419
0.00635325
0.00616882
0.00599074
0.00581882
0.00565288
0.00549272
0.00533813
0.00518886
0.00504471
0.00490542
0.00477075
0.00464047
0.00451435
0.00439215
0.00427366
0.00415873
0.00404714
0.00393875
0.00383337
0.00373087
0.0036311
0.00353392
0.00343923
0.00334691
0.00325685
0.00316896
0.00308314
0.00299931
0.00291738
0.00283729
0.00275895
0.0026823
0.00260728
0.00253382
0.00246187
0.00239136
0.00232226
0.00225451
0.00218806
0.00212287
0.0020589
0.00199611
0.00193447
0.00187393
0.00181448
0.00175607
0.00169867
0.00164226
0.00158681
0.00153228
0.00147864
0.00142587
0.00137395
0.00132286
0.00127258
0.0012231
0.00117437
0.00112631
0.00107883
0.0010319
0.000985609
0.000940277
0.000896366
0.000854234
0.000813661
0.000773305
0.00073024
0.000679684
0.000615321
0.000531137
0.000425713
0.000307152
0.000192998
0.000101842
4.30398e-05
1.3585e-05
2.88786e-06
3.5716e-07
2.11336e-08
4.73702e-10
3.27769e-12
1.61727e-13
1.57117e-13
1.57065e-13
1.56609e-13
1.54635e-13
1.50013e-13
1.42596e-13
1.33337e-13
1.23624e-13
1.14483e-13
1.06274e-13
9.88583e-14
9.1913e-14
8.51488e-14
7.83911e-14
7.15794e-14
6.47282e-14
5.78829e-14
5.10871e-14
4.43686e-14
3.77388e-14
3.11977e-14
2.47474e-14
1.84177e-14
1.23265e-14
6.80827e-15
2.57672e-15
4.47423e-16
2.30306e-17
4.94401e-18
4.79193e-18
4.78973e-18
4.78971e-18
4.78971e-18
4.78971e-18
4.78971e-18
0.0123046
0.0123046
0.0123046
0.0123046
0.0123046
0.0123046
0.0123046
0.0123046
0.0123046
0.0123046
0.0123046
0.0123046
0.0123046
0.0123046
0.0123046
0.0123046
0.0123045
0.0123038
0.0123006
0.0122916
0.0122723
0.012238
0.0121841
0.012107
0.0120047
0.0118763
0.0117223
0.0115444
0.0113451
0.0111274
0.0108943
0.0106492
0.0103951
0.0101349
0.00987101
0.00960575
0.00934096
0.00907821
0.00881878
0.00856368
0.00831373
0.00806952
0.00783151
0.00760001
0.00737521
0.00715722
0.00694608
0.00674176
0.00654419
0.00635325
0.00616882
0.00599074
0.00581882
0.00565288
0.00549272
0.00533812
0.00518886
0.00504471
0.00490542
0.00477075
0.00464047
0.00451435
0.00439214
0.00427366
0.00415872
0.00404714
0.00393875
0.00383337
0.00373087
0.0036311
0.00353392
0.00343923
0.00334691
0.00325685
0.00316896
0.00308314
0.00299931
0.00291738
0.00283729
0.00275895
0.0026823
0.00260728
0.00253382
0.00246187
0.00239136
0.00232226
0.00225451
0.00218806
0.00212287
0.0020589
0.00199611
0.00193446
0.00187393
0.00181448
0.00175607
0.00169867
0.00164226
0.00158681
0.00153227
0.00147864
0.00142587
0.00137395
0.00132285
0.00127258
0.0012231
0.00117437
0.00112631
0.00107883
0.0010319
0.000985608
0.000940277
0.000896366
0.000854233
0.00081366
0.000773304
0.000730239
0.000679682
0.000615318
0.000531134
0.000425708
0.000307147
0.000192994
0.000101839
4.30384e-05
1.35845e-05
2.88775e-06
3.57146e-07
2.11329e-08
4.7369e-10
3.27765e-12
1.61727e-13
1.57118e-13
1.57066e-13
1.5661e-13
1.54635e-13
1.50013e-13
1.42596e-13
1.33338e-13
1.23624e-13
1.14484e-13
1.06275e-13
9.88585e-14
9.19132e-14
8.5149e-14
7.83913e-14
7.15795e-14
6.47283e-14
5.7883e-14
5.10872e-14
4.43687e-14
3.77388e-14
3.11978e-14
2.47474e-14
1.84178e-14
1.23266e-14
6.80831e-15
2.57674e-15
4.4743e-16
2.3031e-17
4.94402e-18
4.79193e-18
4.78973e-18
4.78971e-18
4.78971e-18
4.78971e-18
4.78971e-18
0.0123046
0.0123046
0.0123046
0.0123046
0.0123046
0.0123046
0.0123046
0.0123046
0.0123046
0.0123046
0.0123046
0.0123046
0.0123046
0.0123046
0.0123046
0.0123046
0.0123045
0.0123038
0.0123006
0.0122916
0.0122723
0.012238
0.0121841
0.012107
0.0120047
0.0118763
0.0117223
0.0115444
0.0113451
0.0111274
0.0108943
0.0106492
0.0103951
0.0101349
0.00987101
0.00960575
0.00934096
0.00907821
0.00881878
0.00856368
0.00831373
0.00806952
0.00783151
0.00760001
0.00737521
0.00715722
0.00694608
0.00674176
0.00654419
0.00635325
0.00616882
0.00599074
0.00581882
0.00565288
0.00549272
0.00533812
0.00518886
0.00504471
0.00490541
0.00477075
0.00464047
0.00451435
0.00439214
0.00427366
0.00415872
0.00404714
0.00393875
0.00383337
0.00373087
0.0036311
0.00353392
0.00343923
0.00334691
0.00325685
0.00316896
0.00308314
0.00299931
0.00291738
0.00283729
0.00275895
0.0026823
0.00260728
0.00253382
0.00246187
0.00239136
0.00232226
0.00225451
0.00218806
0.00212287
0.0020589
0.00199611
0.00193446
0.00187393
0.00181448
0.00175607
0.00169867
0.00164226
0.00158681
0.00153227
0.00147864
0.00142587
0.00137395
0.00132285
0.00127258
0.0012231
0.00117437
0.00112631
0.00107883
0.0010319
0.000985608
0.000940276
0.000896365
0.000854232
0.00081366
0.000773304
0.000730238
0.000679681
0.000615316
0.000531131
0.000425704
0.000307143
0.000192991
0.000101837
4.30373e-05
1.35842e-05
2.88765e-06
3.57133e-07
2.11321e-08
4.73673e-10
3.27755e-12
1.61728e-13
1.57118e-13
1.57066e-13
1.5661e-13
1.54636e-13
1.50014e-13
1.42597e-13
1.33338e-13
1.23624e-13
1.14484e-13
1.06275e-13
9.88588e-14
9.19135e-14
8.51492e-14
7.83915e-14
7.15797e-14
6.47285e-14
5.78831e-14
5.10873e-14
4.43688e-14
3.77389e-14
3.11978e-14
2.47475e-14
1.84178e-14
1.23266e-14
6.80835e-15
2.57677e-15
4.47436e-16
2.30315e-17
4.94402e-18
4.79193e-18
4.78973e-18
4.78971e-18
4.78971e-18
4.78971e-18
4.78971e-18
0.0123046
0.0123046
0.0123046
0.0123046
0.0123046
0.0123046
0.0123046
0.0123046
0.0123046
0.0123046
0.0123046
0.0123046
0.0123046
0.0123046
0.0123046
0.0123046
0.0123045
0.0123038
0.0123006
0.0122916
0.0122723
0.012238
0.0121841
0.012107
0.0120047
0.0118763
0.0117223
0.0115444
0.0113451
0.0111274
0.0108943
0.0106492
0.0103951
0.0101349
0.009871
0.00960575
0.00934096
0.00907821
0.00881878
0.00856368
0.00831373
0.00806952
0.00783151
0.0076
0.00737521
0.00715722
0.00694608
0.00674176
0.00654418
0.00635325
0.00616882
0.00599074
0.00581882
0.00565288
0.00549272
0.00533812
0.00518886
0.0050447
0.00490541
0.00477075
0.00464047
0.00451435
0.00439214
0.00427366
0.00415872
0.00404714
0.00393875
0.00383337
0.00373087
0.00363109
0.00353392
0.00343923
0.00334691
0.00325685
0.00316896
0.00308314
0.00299931
0.00291738
0.00283729
0.00275895
0.0026823
0.00260728
0.00253382
0.00246187
0.00239136
0.00232226
0.00225451
0.00218806
0.00212287
0.0020589
0.00199611
0.00193446
0.00187393
0.00181448
0.00175607
0.00169867
0.00164226
0.00158681
0.00153227
0.00147864
0.00142587
0.00137395
0.00132285
0.00127258
0.0012231
0.00117437
0.00112631
0.00107883
0.0010319
0.000985607
0.000940275
0.000896364
0.000854232
0.000813659
0.000773303
0.000730237
0.00067968
0.000615315
0.000531129
0.000425702
0.000307141
0.000192989
0.000101836
4.30366e-05
1.35839e-05
2.88759e-06
3.57125e-07
2.11316e-08
4.73659e-10
3.27746e-12
1.61728e-13
1.57119e-13
1.57067e-13
1.56611e-13
1.54636e-13
1.50014e-13
1.42597e-13
1.33339e-13
1.23625e-13
1.14484e-13
1.06275e-13
9.88591e-14
9.19137e-14
8.51494e-14
7.83917e-14
7.15798e-14
6.47286e-14
5.78832e-14
5.10874e-14
4.43689e-14
3.7739e-14
3.11979e-14
2.47476e-14
1.84179e-14
1.23267e-14
6.80838e-15
2.57679e-15
4.47443e-16
2.30319e-17
4.94402e-18
4.79193e-18
4.78973e-18
4.78971e-18
4.78971e-18
4.78971e-18
4.78971e-18
0.0123046
0.0123046
0.0123046
0.0123046
0.0123046
0.0123046
0.0123046
0.0123046
0.0123046
0.0123046
0.0123046
0.0123046
0.0123046
0.0123046
0.0123046
0.0123046
0.0123045
0.0123038
0.0123006
0.0122916
0.0122723
0.012238
0.0121841
0.012107
0.0120047
0.0118763
0.0117223
0.0115444
0.0113451
0.0111274
0.0108943
0.0106492
0.0103951
0.0101349
0.009871
0.00960575
0.00934096
0.00907821
0.00881878
0.00856368
0.00831372
0.00806952
0.00783151
0.0076
0.0073752
0.00715722
0.00694608
0.00674176
0.00654418
0.00635325
0.00616882
0.00599073
0.00581882
0.00565288
0.00549272
0.00533812
0.00518886
0.0050447
0.00490541
0.00477075
0.00464047
0.00451435
0.00439214
0.00427366
0.00415872
0.00404714
0.00393875
0.00383337
0.00373087
0.00363109
0.00353392
0.00343923
0.00334691
0.00325685
0.00316896
0.00308314
0.00299931
0.00291738
0.00283729
0.00275895
0.0026823
0.00260728
0.00253382
0.00246186
0.00239136
0.00232226
0.00225451
0.00218806
0.00212287
0.0020589
0.00199611
0.00193446
0.00187393
0.00181448
0.00175607
0.00169867
0.00164226
0.00158681
0.00153227
0.00147864
0.00142587
0.00137395
0.00132285
0.00127258
0.0012231
0.00117437
0.00112631
0.00107883
0.0010319
0.000985607
0.000940275
0.000896364
0.000854231
0.000813658
0.000773302
0.000730236
0.000679679
0.000615313
0.000531127
0.0004257
0.000307139
0.000192988
0.000101835
4.30361e-05
1.35837e-05
2.88755e-06
3.57119e-07
2.11312e-08
4.7365e-10
3.2774e-12
1.61728e-13
1.57119e-13
1.57067e-13
1.56611e-13
1.54637e-13
1.50015e-13
1.42597e-13
1.33339e-13
1.23625e-13
1.14485e-13
1.06276e-13
9.88593e-14
9.19139e-14
8.51496e-14
7.83919e-14
7.158e-14
6.47288e-14
5.78834e-14
5.10875e-14
4.4369e-14
3.77391e-14
3.1198e-14
2.47477e-14
1.84179e-14
1.23267e-14
6.80842e-15
2.57681e-15
4.47449e-16
2.30323e-17
4.94403e-18
4.79193e-18
4.78973e-18
4.78971e-18
4.78971e-18
4.78971e-18
4.78971e-18
0.0123046
0.0123046
0.0123046
0.0123046
0.0123046
0.0123046
0.0123046
0.0123046
0.0123046
0.0123046
0.0123046
0.0123046
0.0123046
0.0123046
0.0123046
0.0123046
0.0123045
0.0123038
0.0123006
0.0122916
0.0122723
0.012238
0.0121841
0.012107
0.0120047
0.0118763
0.0117223
0.0115444
0.0113451
0.0111274
0.0108943
0.0106492
0.0103951
0.0101349
0.009871
0.00960574
0.00934096
0.00907821
0.00881877
0.00856368
0.00831372
0.00806952
0.00783151
0.0076
0.0073752
0.00715722
0.00694608
0.00674176
0.00654418
0.00635325
0.00616882
0.00599073
0.00581882
0.00565288
0.00549272
0.00533812
0.00518886
0.0050447
0.00490541
0.00477075
0.00464047
0.00451435
0.00439214
0.00427366
0.00415872
0.00404714
0.00393875
0.00383337
0.00373087
0.00363109
0.00353392
0.00343923
0.00334691
0.00325685
0.00316896
0.00308314
0.00299931
0.00291738
0.00283728
0.00275895
0.0026823
0.00260728
0.00253382
0.00246186
0.00239136
0.00232226
0.00225451
0.00218806
0.00212287
0.0020589
0.00199611
0.00193446
0.00187393
0.00181447
0.00175607
0.00169867
0.00164226
0.0015868
0.00153227
0.00147864
0.00142587
0.00137394
0.00132285
0.00127258
0.0012231
0.00117437
0.00112631
0.00107883
0.0010319
0.000985606
0.000940274
0.000896363
0.000854231
0.000813658
0.000773302
0.000730236
0.000679678
0.000615312
0.000531126
0.000425699
0.000307138
0.000192986
0.000101834
4.30357e-05
1.35836e-05
2.88752e-06
3.57115e-07
2.11309e-08
4.73644e-10
3.27735e-12
1.61729e-13
1.57119e-13
1.57068e-13
1.56612e-13
1.54637e-13
1.50015e-13
1.42598e-13
1.33339e-13
1.23626e-13
1.14485e-13
1.06276e-13
9.88596e-14
9.19142e-14
8.51499e-14
7.83921e-14
7.15802e-14
6.47289e-14
5.78835e-14
5.10876e-14
4.43691e-14
3.77392e-14
3.11981e-14
2.47477e-14
1.8418e-14
1.23268e-14
6.80846e-15
2.57683e-15
4.47455e-16
2.30327e-17
4.94403e-18
4.79193e-18
4.78973e-18
4.78971e-18
4.78971e-18
4.78971e-18
4.78971e-18
0.0123046
0.0123046
0.0123046
0.0123046
0.0123046
0.0123046
0.0123046
0.0123046
0.0123046
0.0123046
0.0123046
0.0123046
0.0123046
0.0123046
0.0123046
0.0123046
0.0123045
0.0123038
0.0123006
0.0122916
0.0122723
0.012238
0.0121841
0.012107
0.0120047
0.0118763
0.0117223
0.0115444
0.0113451
0.0111274
0.0108943
0.0106492
0.0103951
0.0101349
0.009871
0.00960574
0.00934096
0.00907821
0.00881877
0.00856368
0.00831372
0.00806952
0.00783151
0.0076
0.0073752
0.00715722
0.00694608
0.00674175
0.00654418
0.00635325
0.00616882
0.00599073
0.00581882
0.00565288
0.00549272
0.00533812
0.00518886
0.0050447
0.00490541
0.00477075
0.00464047
0.00451434
0.00439214
0.00427366
0.00415872
0.00404714
0.00393875
0.00383337
0.00373087
0.00363109
0.00353392
0.00343923
0.00334691
0.00325685
0.00316896
0.00308314
0.00299931
0.00291738
0.00283728
0.00275895
0.0026823
0.00260728
0.00253382
0.00246186
0.00239136
0.00232226
0.00225451
0.00218806
0.00212287
0.0020589
0.00199611
0.00193446
0.00187393
0.00181447
0.00175607
0.00169867
0.00164226
0.0015868
0.00153227
0.00147864
0.00142587
0.00137394
0.00132285
0.00127258
0.0012231
0.00117437
0.00112631
0.00107883
0.00103189
0.000985606
0.000940274
0.000896363
0.00085423
0.000813657
0.000773301
0.000730235
0.000679677
0.000615312
0.000531125
0.000425698
0.000307136
0.000192985
0.000101833
4.30354e-05
1.35835e-05
2.88749e-06
3.57111e-07
2.11307e-08
4.73638e-10
3.27731e-12
1.61729e-13
1.5712e-13
1.57068e-13
1.56612e-13
1.54638e-13
1.50015e-13
1.42598e-13
1.3334e-13
1.23626e-13
1.14485e-13
1.06276e-13
9.88599e-14
9.19145e-14
8.51501e-14
7.83923e-14
7.15804e-14
6.47291e-14
5.78837e-14
5.10878e-14
4.43693e-14
3.77393e-14
3.11982e-14
2.47478e-14
1.84181e-14
1.23268e-14
6.8085e-15
2.57685e-15
4.47461e-16
2.30331e-17
4.94404e-18
4.79193e-18
4.78973e-18
4.78971e-18
4.78971e-18