/*--------------------------------*- C++ -*----------------------------------*\
  =========                 |
  \\      /  F ield         | OpenFOAM: The Open Source CFD Toolbox
   \\    /   O peration     | Website:  https://openfoam.org
    \\  /    A nd           | Version:  13
     \\/     M anipulation  |
\*---------------------------------------------------------------------------*/
FoamFile
{
    format      ascii;
    class       volScalarField;
    location    "0.0012";
    object      p;
}
// * * * * * * * * * * * * * * * * * * * * * * * * * * * * * * * * * * * * * //

dimensions      [1 -1 -2 0 0 0 0];

internalField   nonuniform List<scalar> 
33334
(
408130
408130
408130
408130
408130
408130
408130
408130
408130
408130
408130
408130
408130
408130
408130
408128
408100
407938
407450
406452
404824
402507
399500
395846
391619
386906
381800
376390
370755
364965
359079
353146
347204
341284
335411
329602
323871
318228
312679
307229
301881
296637
291498
286464
281538
276720
272013
267423
262956
258625
254446
250444
246651
243107
239863
236972
234486
232440
230840
229645
228771
228076
227515
227144
226904
226688
226455
226197
225922
225638
225350
225063
224781
224504
224234
223972
223716
223467
223225
222988
222757
222531
222309
222091
221877
221667
221461
221259
221061
220867
220679
220495
220316
220138
219963
219791
219622
219457
219294
219135
218979
218826
218676
218528
218381
218236
218094
217955
217818
217682
217549
217420
217293
217162
217028
216923
216808
216696
216585
216499
216468
216537
216720
216911
216865
216492
215658
215347
215135
214689
214458
214266
214059
213856
213660
213452
213255
213065
212879
212694
212510
212328
212146
211966
211789
211618
211452
211292
211137
210985
210830
210660
210433
210032
209119
206713
200068
182678
147877
112505
100873
100010
100000
100000
100000
100000
408130
408130
408130
408130
408130
408130
408130
408130
408130
408130
408130
408130
408130
408130
408130
408128
408100
407938
407450
406452
404824
402507
399500
395846
391619
386906
381800
376390
370755
364965
359079
353146
347204
341284
335411
329602
323871
318228
312679
307229
301881
296637
291498
286464
281538
276720
272013
267422
262956
258625
254446
250444
246651
243107
239863
236972
234486
232440
230840
229645
228770
228077
227515
227144
226904
226688
226455
226197
225922
225638
225350
225063
224781
224504
224234
223972
223716
223467
223225
222988
222757
222531
222309
222091
221877
221667
221461
221259
221061
220867
220679
220495
220316
220139
219963
219791
219622
219457
219294
219135
218979
218826
218676
218528
218381
218236
218094
217955
217818
217682
217549
217420
217293
217162
217028
216923
216809
216696
216586
216501
216471
216540
216722
216912
216864
216490
215657
215345
215135
214689
214458
214266
214059
213856
213660
213453
213255
213065
212879
212694
212510
212328
212146
211966
211789
211618
211452
211292
211137
210985
210830
210660
210433
210032
209119
206713
200068
182678
147877
112506
100873
100010
100000
100000
100000
100000
408130
408130
408130
408130
408130
408130
408130
408130
408130
408130
408130
408130
408130
408130
408130
408128
408100
407938
407450
406452
404824
402507
399499
395846
391619
386906
381800
376390
370755
364965
359079
353146
347204
341284
335411
329602
323871
318228
312679
307229
301881
296637
291498
286464
281538
276720
272013
267422
262956
258625
254446
250444
246651
243107
239863
236972
234486
232440
230840
229645
228770
228077
227515
227144
226904
226688
226455
226197
225922
225638
225350
225063
224781
224504
224234
223972
223716
223467
223225
222988
222757
222531
222309
222091
221877
221667
221461
221259
221061
220867
220679
220495
220316
220138
219963
219791
219622
219457
219294
219135
218979
218826
218676
218528
218381
218236
218094
217955
217818
217682
217549
217420
217293
217162
217028
216923
216809
216697
216586
216500
216469
216538
216721
216912
216865
216491
215657
215345
215135
214689
214458
214266
214059
213856
213660
213453
213255
213065
212879
212694
212510
212328
212146
211966
211789
211618
211452
211292
211137
210985
210830
210660
210433
210032
209119
206713
200068
182679
147877
112506
100873
100010
100000
100000
100000
100000
408130
408130
408130
408130
408130
408130
408130
408130
408130
408130
408130
408130
408130
408130
408130
408128
408100
407938
407450
406452
404824
402507
399499
395846
391618
386906
381800
376390
370755
364965
359079
353146
347204
341284
335411
329602
323871
318228
312679
307229
301881
296637
291498
286464
281538
276720
272013
267422
262956
258625
254446
250444
246650
243107
239862
236972
234486
232440
230840
229645
228770
228077
227515
227144
226904
226688
226455
226197
225922
225638
225350
225063
224781
224504
224234
223972
223716
223467
223225
222988
222757
222531
222309
222091
221877
221667
221461
221259
221061
220867
220679
220495
220316
220138
219963
219791
219622
219457
219294
219135
218979
218826
218676
218528
218381
218236
218094
217955
217818
217682
217549
217420
217293
217162
217028
216923
216809
216697
216586
216500
216469
216538
216721
216912
216865
216492
215658
215346
215135
214689
214458
214266
214059
213856
213660
213453
213255
213065
212879
212694
212510
212328
212146
211966
211789
211618
211452
211292
211137
210985
210830
210660
210433
210032
209119
206713
200068
182679
147877
112506
100873
100010
100000
100000
100000
100000
408130
408130
408130
408130
408130
408130
408130
408130
408130
408130
408130
408130
408130
408130
408130
408128
408100
407938
407450
406452
404824
402507
399499
395846
391618
386906
381800
376390
370755
364965
359079
353146
347204
341284
335411
329602
323871
318228
312679
307229
301881
296637
291498
286464
281538
276720
272013
267422
262956
258625
254446
250444
246650
243107
239862
236972
234486
232440
230840
229645
228770
228077
227515
227144
226904
226688
226455
226197
225922
225638
225350
225063
224781
224504
224234
223972
223716
223467
223225
222988
222757
222531
222309
222091
221877
221667
221461
221259
221061
220867
220679
220495
220316
220138
219963
219791
219622
219457
219294
219135
218979
218826
218676
218528
218381
218236
218094
217955
217818
217682
217549
217420
217293
217162
217028
216923
216809
216697
216586
216500
216469
216538
216721
216912
216865
216492
215658
215346
215135
214689
214458
214266
214059
213856
213660
213453
213255
213065
212879
212694
212510
212328
212146
211966
211789
211618
211452
211292
211137
210985
210830
210660
210433
210032
209119
206713
200068
182679
147878
112506
100873
100010
100000
100000
100000
100000
408130
408130
408130
408130
408130
408130
408130
408130
408130
408130
408130
408130
408130
408130
408130
408128
408100
407938
407450
406452
404824
402507
399499
395846
391618
386906
381800
376390
370755
364965
359079
353146
347204
341284
335411
329602
323871
318227
312679
307229
301881
296637
291498
286464
281538
276720
272013
267422
262956
258625
254446
250444
246650
243107
239862
236972
234486
232440
230840
229645
228770
228077
227515
227144
226904
226688
226455
226197
225922
225638
225350
225063
224781
224504
224234
223972
223716
223467
223225
222988
222757
222531
222309
222091
221877
221667
221461
221259
221061
220867
220679
220495
220316
220139
219963
219791
219622
219457
219294
219135
218979
218826
218676
218528
218381
218236
218094
217955
217818
217682
217549
217420
217293
217162
217028
216923
216809
216697
216586
216500
216470
216538
216721
216912
216865
216492
215658
215346
215135
214689
214458
214266
214059
213856
213660
213453
213255
213065
212879
212694
212511
212328
212146
211966
211789
211618
211452
211292
211137
210985
210830
210660
210433
210032
209119
206713
200068
182679
147878
112506
100873
100010
100000
100000
100000
100000
408130
408130
408130
408130
408130
408130
408130
408130
408130
408130
408130
408130
408130
408130
408130
408128
408100
407938
407450
406452
404824
402507
399499
395846
391618
386906
381800
376390
370755
364965
359079
353146
347204
341284
335411
329602
323871
318227
312678
307229
301881
296637
291498
286464
281538
276720
272013
267422
262956
258625
254446
250444
246650
243107
239862
236972
234486
232440
230839
229645
228770
228077
227515
227144
226904
226688
226455
226197
225922
225638
225350
225063
224781
224504
224234
223972
223716
223467
223225
222988
222757
222531
222309
222091
221877
221667
221461
221259
221061
220867
220679
220495
220316
220139
219963
219791
219622
219457
219294
219135
218979
218826
218676
218528
218381
218236
218094
217955
217818
217682
217549
217420
217293
217162
217028
216923
216809
216697
216586
216500
216470
216539
216721
216912
216866
216493
215658
215346
215136
214689
214458
214266
214059
213856
213660
213453
213255
213065
212879
212694
212511
212328
212146
211966
211789
211618
211452
211292
211137
210985
210830
210660
210433
210032
209119
206713
200068
182679
147878
112506
100873
100010
100000
100000
100000
100000
408130
408130
408130
408130
408130
408130
408130
408130
408130
408130
408130
408130
408130
408130
408130
408128
408100
407938
407450
406452
404824
402507
399499
395846
391618
386906
381800
376390
370755
364965
359079
353146
347204
341284
335411
329602
323871
318227
312678
307229
301881
296637
291498
286464
281538
276719
272013
267422
262956
258625
254446
250444
246650
243107
239862
236972
234486
232440
230839
229645
228770
228077
227515
227144
226904
226688
226455
226197
225922
225638
225350
225063
224781
224504
224234
223972
223716
223467
223225
222988
222757
222531
222309
222091
221877
221667
221461
221259
221061
220867
220679
220495
220316
220139
219963
219791
219622
219457
219294
219135
218979
218826
218676
218528
218381
218236
218094
217955
217818
217682
217549
217420
217293
217162
217028
216923
216809
216697
216586
216501
216470
216539
216721
216912
216866
216493
215658
215346
215136
214689
214458
214266
214059
213856
213660
213453
213255
213065
212879
212694
212511
212328
212146
211966
211790
211618
211452
211292
211137
210985
210830
210660
210433
210032
209119
206713
200068
182680
147879
112507
100873
100010
100000
100000
100000
100000
408130
408130
408130
408130
408130
408130
408130
408130
408130
408130
408130
408130
408130
408130
408130
408128
408100
407938
407450
406452
404824
402507
399499
395846
391618
386906
381800
376390
370755
364965
359079
353146
347204
341284
335411
329602
323871
318227
312678
307229
301881
296637
291497
286464
281538
276719
272013
267422
262956
258625
254446
250444
246650
243107
239862
236972
234486
232440
230839
229645
228770
228076
227514
227144
226904
226688
226455
226197
225922
225638
225350
225063
224781
224504
224234
223972
223716
223467
223225
222988
222757
222531
222309
222091
221877
221667
221461
221259
221061
220867
220679
220495
220316
220139
219963
219791
219622
219457
219294
219135
218979
218826
218676
218528
218381
218236
218094
217955
217818
217682
217549
217420
217293
217162
217028
216923
216809
216697
216586
216501
216470
216539
216721
216912
216866
216493
215658
215347
215136
214689
214459
214266
214059
213856
213660
213453
213255
213065
212879
212694
212511
212328
212146
211966
211790
211618
211452
211292
211137
210985
210830
210660
210433
210032
209119
206713
200068
182680
147879
112507
100874
100010
100000
100000
100000
100000
408130
408130
408130
408130
408130
408130
408130
408130
408130
408130
408130
408130
408130
408130
408130
408128
408100
407938
407450
406452
404824
402506
399499
395846
391618
386906
381800
376390
370755
364965
359079
353145
347204
341284
335411
329602
323871
318227
312678
307228
301881
296637
291497
286464
281538
276719
272013
267422
262956
258624
254446
250444
246650
243106
239862
236972
234486
232440
230839
229645
228770
228076
227514
227144
226904
226688
226455
226197
225922
225638
225350
225063
224781
224504
224234
223972
223716
223467
223225
222988
222757
222531
222309
222091
221877
221667
221461
221259
221061
220867
220679
220496
220316
220139
219963
219791
219622
219457
219294
219135
218979
218826
218676
218528
218381
218236
218094
217955
217818
217682
217549
217420
217293
217162
217028
216923
216809
216697
216586
216501
216470
216539
216721
216912
216866
216493
215658
215347
215136
214689
214459
214266
214059
213856
213660
213453
213255
213065
212879
212694
212511
212328
212146
211966
211790
211618
211452
211292
211137
210985
210830
210660
210433
210032
209119
206713
200068
182680
147879
112507
100874
100010
100000
100000
100000
100000
408130
408130
408130
408130
408130
408130
408130
408130
408130
408130
408130
408130
408130
408130
408130
408128
408100
407938
407450
406452
404824
402506
399499
395846
391618
386906
381800
376390
370755
364965
359079
353145
347204
341284
335411
329602
323871
318227
312678
307228
301881
296637
291497
286464
281537
276719
272013
267422
262955
258624
254446
250444
246650
243106
239862
236971
234485
232440
230839
229645
228770
228076
227514
227144
226904
226688
226455
226197
225922
225638
225350
225063
224781
224504
224234
223972
223716
223467
223225
222988
222757
222531
222309
222091
221877
221667
221461
221259
221061
220867
220679
220496
220316
220139
219963
219791
219622
219457
219294
219135
218979
218826
218676
218528
218381
218236
218094
217955
217818
217682
217549
217420
217293
217162
217028
216923
216809
216697
216587
216501
216470
216539
216721
216912
216866
216493
215658
215347
215136
214689
214459
214266
214059
213856
213660
213453
213255
213065
212879
212694
212511
212328
212146
211966
211790
211618
211452
211292
211137
210985
210830
210660
210433
210032
209119
206713
200068
182680
147879
112507
100874
100010
100000
100000
100000
100000
408130
408130
408130
408130
408130
408130
408130
408130
408130
408130
408130
408130
408130
408130
408130
408128
408100
407938
407450
406452
404824
402506
399499
395845
391618
386906
381800
376390
370755
364965
359079
353145
347203
341284
335411
329602
323871
318227
312678
307228
301881
296636
291497
286464
281537
276719
272013
267422
262955
258624
254446
250444
246650
243106
239862
236971
234485
232440
230839
229645
228770
228076
227514
227144
226904
226688
226455
226197
225922
225638
225350
225063
224781
224504
224234
223972
223716
223467
223225
222988
222757
222531
222309
222091
221877
221667
221461
221259
221061
220867
220679
220496
220316
220139
219963
219791
219622
219457
219294
219135
218979
218826
218676
218528
218381
218236
218094
217955
217818
217682
217549
217420
217293
217162
217028
216923
216809
216697
216587
216501
216470
216539
216722
216913
216866
216493
215658
215347
215136
214689
214459
214266
214060
213856
213660
213453
213255
213065
212879
212694
212511
212328
212146
211966
211790
211618
211452
211292
211137
210985
210830
210660
210433
210032
209119
206713
200068
182680
147880
112507
100874
100010
100000
100000
100000
100000
408130
408130
408130
408130
408130
408130
408130
408130
408130
408130
408130
408130
408130
408130
408130
408128
408100
407938
407450
406452
404824
402506
399499
395845
391618
386906
381800
376390
370754
364965
359079
353145
347203
341284
335411
329602
323871
318227
312678
307228
301880
296636
291497
286464
281537
276719
272013
267422
262955
258624
254446
250444
246650
243106
239862
236971
234485
232440
230839
229645
228770
228076
227514
227144
226904
226688
226455
226197
225922
225638
225350
225063
224781
224504
224234
223972
223716
223467
223225
222988
222757
222531
222309
222091
221877
221668
221461
221259
221061
220867
220679
220496
220316
220139
219963
219791
219622
219457
219294
219135
218979
218826
218676
218528
218381
218236
218094
217955
217818
217682
217549
217420
217293
217162
217029
216923
216809
216697
216587
216501
216470
216539
216722
216913
216866
216493
215659
215347
215136
214689
214459
214266
214060
213856
213660
213453
213255
213065
212879
212694
212511
212328
212146
211966
211790
211618
211452
211292
211137
210985
210830
210660
210433
210032
209119
206713
200068
182680
147880
112507
100874
100010
100000
100000
100000
100000
408130
408130
408130
408130
408130
408130
408130
408130
408130
408130
408130
408130
408130
408130
408130
408128
408100
407938
407450
406452
404824
402506
399499
395845
391618
386906
381800
376389
370754
364965
359079
353145
347203
341284
335411
329602
323871
318227
312678
307228
301880
296636
291497
286464
281537
276719
272013
267422
262955
258624
254446
250444
246650
243106
239862
236971
234485
232440
230839
229645
228770
228076
227514
227144
226904
226688
226455
226197
225922
225638
225350
225063
224781
224504
224234
223972
223716
223468
223225
222988
222757
222531
222309
222091
221877
221668
221461
221259
221061
220867
220679
220496
220316
220139
219963
219791
219622
219457
219295
219135
218979
218826
218676
218528
218381
218236
218094
217955
217818
217682
217549
217420
217293
217162
217029
216923
216809
216697
216587
216501
216470
216539
216722
216913
216866
216493
215659
215347
215136
214689
214459
214266
214060
213856
213660
213453
213255
213065
212879
212694
212511
212328
212146
211966
211790
211618
211452
211292
211137
210985
210830
210660
210433
210032
209119
206713
200069
182680
147880
112507
100874
100010
100000
100000
100000
100000
408130
408130
408130
408130
408130
408130
408130
408130
408130
408130
408130
408130
408130
408130
408130
408128
408100
407938
407450
406452
404824
402506
399499
395845
391618
386906
381800
376389
370754
364965
359079
353145
347203
341284
335410
329602
323870
318227
312678
307228
301880
296636
291497
286464
281537
276719
272012
267422
262955
258624
254446
250444
246650
243106
239862
236971
234485
232440
230839
229645
228770
228076
227514
227143
226904
226688
226455
226197
225922
225638
225350
225063
224781
224504
224234
223972
223716
223468
223225
222988
222757
222531
222309
222091
221877
221668
221461
221259
221061
220867
220679
220496
220316
220139
219963
219791
219622
219457
219295
219135
218979
218826
218676
218528
218381
218236
218094
217955
217818
217682
217549
217420
217294
217162
217029
216923
216809
216697
216587
216501
216470
216539
216722
216913
216866
216493
215659
215347
215136
214689
214459
214266
214060
213856
213660
213453
213255
213065
212879
212694
212511
212328
212146
211966
211790
211618
211452
211292
211138
210985
210830
210660
210433
210032
209119
206713
200069
182681
147880
112508
100874
100010
100000
100000
100000
100000
408128
408128
408128
408128
408128
408128
408128
408128
408128
408128
408128
408128
408128
408128
408128
408126
408098
407936
407448
406450
404822
402505
399497
395844
391616
386904
381798
376388
370753
364963
359077
353144
347202
341283
335410
329601
323870
318227
312678
307228
301880
296636
291497
286464
281537
276719
272012
267422
262955
258624
254446
250444
246650
243106
239862
236971
234485
232439
230839
229645
228770
228076
227514
227143
226904
226688
226455
226197
225922
225638
225350
225063
224781
224504
224234
223972
223716
223468
223225
222988
222757
222531
222309
222091
221877
221668
221462
221259
221061
220867
220679
220496
220316
220139
219963
219791
219622
219457
219295
219135
218979
218826
218676
218528
218381
218236
218094
217955
217818
217683
217549
217420
217294
217162
217029
216923
216809
216697
216587
216501
216470
216539
216722
216913
216866
216493
215659
215347
215136
214689
214459
214266
214060
213856
213660
213453
213255
213065
212879
212694
212511
212328
212146
211966
211790
211618
211452
211292
211138
210985
210830
210660
210433
210032
209119
206713
200069
182681
147880
112508
100874
100010
100000
100000
100000
100000
408100
408100
408100
408100
408100
408100
408100
408100
408100
408100
408100
408100
408100
408100
408100
408098
408070
407908
407420
406422
404794
402477
399470
395817
391591
386879
381774
376365
370731
364943
359058
353126
347186
341268
335396
329588
323858
318216
312668
307220
301873
296630
291492
286459
281533
276716
272009
267419
262953
258622
254444
250442
246649
243105
239861
236971
234485
232439
230839
229644
228769
228076
227514
227143
226904
226688
226455
226197
225922
225638
225350
225063
224781
224504
224234
223972
223716
223468
223225
222988
222757
222531
222309
222091
221877
221668
221462
221259
221061
220867
220679
220496
220316
220139
219963
219791
219622
219457
219295
219135
218979
218826
218676
218528
218381
218236
218094
217955
217818
217683
217549
217420
217294
217163
217029
216924
216809
216697
216587
216501
216470
216539
216722
216913
216866
216493
215659
215347
215136
214690
214459
214266
214060
213856
213660
213453
213255
213065
212879
212694
212511
212328
212146
211966
211790
211618
211452
211293
211138
210985
210830
210660
210433
210032
209119
206713
200069
182681
147881
112508
100874
100010
100000
100000
100000
100000
407938
407938
407938
407938
407938
407938
407938
407938
407938
407938
407938
407938
407938
407938
407938
407936
407908
407746
407258
406261
404634
402319
399314
395664
391441
386733
381633
376229
370601
364818
358939
353014
347079
341168
335302
329501
323778
318141
312600
307157
301815
296577
291444
286416
281495
276681
271979
267392
262929
258602
254426
250427
246635
243094
239851
236962
234477
232433
230833
229640
228766
228073
227512
227141
226902
226687
226454
226196
225921
225637
225349
225063
224781
224504
224234
223972
223716
223467
223225
222988
222757
222531
222309
222091
221877
221668
221461
221259
221061
220867
220679
220496
220316
220139
219963
219791
219622
219457
219295
219135
218979
218826
218676
218528
218381
218236
218094
217955
217818
217683
217549
217420
217294
217163
217029
216924
216809
216697
216587
216501
216470
216539
216722
216913
216866
216493
215659
215347
215136
214690
214459
214267
214060
213856
213660
213453
213255
213065
212879
212694
212511
212328
212146
211966
211790
211618
211452
211293
211138
210985
210830
210660
210433
210032
209119
206713
200069
182681
147881
112508
100874
100010
100000
100000
100000
100000
407450
407450
407450
407450
407450
407450
407450
407450
407450
407450
407450
407450
407450
407450
407450
407448
407420
407258
406771
405776
404152
401841
398843
395200
390986
386289
381201
375810
370196
364428
358565
352655
346737
340842
334993
329208
323500
317880
312354
306926
301599
296376
291256
286242
281333
276532
271842
267266
262814
258496
254330
250340
246557
243023
239787
236905
234426
232387
230792
229603
228733
228045
227486
227119
226883
226670
226439
226184
225910
225628
225341
225056
224775
224499
224230
223968
223714
223465
223223
222987
222756
222530
222308
222091
221877
221667
221461
221259
221060
220867
220679
220495
220316
220139
219963
219791
219622
219457
219295
219135
218979
218826
218676
218528
218381
218236
218094
217955
217818
217683
217549
217420
217294
217163
217029
216924
216809
216697
216587
216501
216470
216539
216722
216913
216866
216493
215659
215347
215136
214690
214459
214267
214060
213856
213660
213453
213255
213065
212879
212695
212511
212328
212146
211966
211790
211618
211452
211293
211138
210985
210830
210660
210433
210032
209119
206713
200069
182681
147881
112508
100874
100010
100000
100000
100000
100000
406452
406452
406452
406452
406452
406452
406452
406452
406452
406452
406452
406452
406452
406452
406452
406450
406422
406261
405776
404785
403167
400865
397878
394251
390054
385377
380312
374945
369357
363616
357781
351900
346011
340144
334324
328568
322889
317297
311799
306398
301098
295901
290807
285817
280932
276154
271486
266932
262500
258203
254056
250084
246318
242801
239581
236713
234248
232222
230639
229462
228602
227927
227375
227017
226788
226584
226360
226112
225845
225568
225288
225008
224732
224461
224196
223938
223687
223441
223202
222969
222740
222516
222296
222080
221868
221660
221455
221254
221056
220863
220676
220493
220314
220137
219962
219790
219621
219456
219294
219135
218979
218826
218676
218528
218381
218236
218094
217955
217818
217683
217549
217420
217294
217163
217029
216924
216809
216697
216587
216501
216470
216539
216722
216913
216866
216493
215659
215347
215136
214690
214459
214267
214060
213856
213660
213453
213255
213065
212879
212695
212511
212328
212146
211966
211790
211618
211452
211293
211138
210985
210830
210660
210433
210032
209119
206713
200069
182681
147881
112508
100874
100010
100000
100000
100000
100000
404824
404824
404824
404824
404824
404824
404824
404824
404824
404824
404824
404824
404824
404824
404824
404822
404794
404634
404152
403167
401559
399271
396304
392699
388531
383885
378854
373525
367976
362277
356484
350646
344800
338977
333200
327486
321850
316299
310841
305480
300219
295059
290002
285048
280198
275455
270819
266298
261897
257630
253512
249567
245829
242337
239141
236297
233854
231848
230284
229126
228283
227626
227088
226746
226532
226341
226131
225896
225642
225378
225110
224842
224577
224316
224062
223814
223572
223335
223105
222879
222658
222442
222228
222019
221812
221609
221410
221213
221020
220831
220647
220468
220292
220117
219945
219775
219609
219445
219285
219127
218972
218820
218671
218524
218378
218233
218092
217953
217817
217681
217548
217419
217293
217162
217028
216923
216809
216697
216587
216501
216470
216539
216722
216913
216866
216493
215659
215347
215136
214690
214459
214267
214060
213856
213660
213453
213255
213065
212879
212695
212511
212328
212146
211966
211790
211618
211452
211293
211138
210985
210830
210660
210433
210032
209119
206714
200069
182681
147881
112508
100874
100010
100000
100000
100000
100000
402507
402507
402507
402507
402507
402507
402507
402507
402507
402506
402506
402506
402506
402506
402506
402505
402477
402319
401841
400865
399271
397004
394063
390492
386362
381761
376778
371500
366005
360361
354625
348845
343057
337291
331571
325914
320332
314836
309431
304122
298911
293801
288792
283885
279081
274381
269789
265309
260949
256721
252641
248733
245029
241571
238407
235593
233178
231198
229661
228528
227706
227070
226554
226232
226037
225864
225672
225456
225221
224975
224724
224473
224224
223980
223742
223509
223282
223061
222845
222633
222426
222222
222022
221825
221630
221439
221251
221065
220882
220703
220528
220358
220190
220024
219860
219697
219537
219380
219226
219074
218924
218777
218633
218489
218347
218206
218068
217932
217798
217665
217533
217406
217282
217152
217020
216917
216804
216693
216584
216499
216469
216539
216722
216913
216866
216493
215659
215347
215136
214690
214459
214267
214060
213856
213660
213453
213255
213065
212879
212695
212511
212328
212146
211966
211790
211618
211452
211293
211138
210985
210830
210660
210433
210032
209119
206714
200069
182682
147881
112508
100874
100010
100000
100000
100000
100000
399500
399500
399499
399499
399499
399499
399499
399499
399499
399499
399499
399499
399499
399499
399499
399497
399470
399314
398843
397878
396304
394063
391158
387629
383549
379003
374081
368869
363442
357868
352203
346494
340778
335083
329433
323845
318331
312900
307560
302313
297164
292113
287162
282311
277562
272916
268375
263945
259634
255453
251418
247554
243892
240474
237349
234570
232189
230241
228733
227628
226831
226218
225729
225429
225255
225105
224934
224739
224526
224301
224071
223841
223613
223389
223170
222957
222750
222547
222350
222156
221967
221782
221599
221419
221241
221067
220894
220724
220557
220394
220234
220078
219925
219773
219622
219472
219326
219181
219038
218897
218759
218623
218489
218355
218222
218090
217960
217832
217706
217580
217456
217336
217218
217095
216970
216875
216767
216663
216561
216483
216459
216533
216720
216912
216866
216493
215659
215347
215136
214690
214459
214267
214060
213856
213660
213453
213255
213065
212879
212695
212511
212328
212146
211966
211790
211618
211452
211293
211138
210985
210830
210660
210434
210032
209119
206714
200069
182682
147882
112508
100874
100010
100000
100000
100000
100000
395846
395846
395846
395846
395846
395846
395846
395846
395846
395846
395846
395845
395845
395845
395845
395844
395817
395664
395200
394251
392699
390492
387629
384152
380133
375654
370806
365671
360325
354834
349253
343628
337995
332383
326815
321306
315870
310516
305250
300076
294997
290014
285129
280342
275655
271069
266587
262215
257958
253830
249847
246033
242418
239045
235963
233224
230879
228966
227492
226418
225645
225054
224596
224322
224170
224042
223894
223722
223532
223330
223123
222915
222709
222507
222311
222119
221933
221752
221576
221403
221235
221070
220907
220747
220590
220435
220282
220131
219983
219838
219697
219560
219425
219291
219157
219025
218895
218768
218641
218517
218394
218274
218155
218036
217918
217800
217684
217571
217458
217346
217236
217131
217027
216921
216811
216736
216642
216558
216475
216417
216412
216504
216704
216906
216865
216493
215659
215347
215136
214690
214459
214267
214060
213856
213660
213453
213255
213065
212879
212695
212511
212328
212146
211966
211790
211618
211452
211293
211138
210985
210831
210660
210434
210033
209119
206714
200069
182682
147882
112508
100874
100010
100000
100000
100000
100000
391619
391619
391619
391618
391618
391618
391618
391618
391618
391618
391618
391618
391618
391618
391618
391616
391591
391441
390986
390054
388531
386362
383549
380133
376183
371782
367017
361971
356717
351320
345834
340304
334765
329246
323768
318349
313000
307730
302546
297451
292449
287542
282729
278013
273394
268874
264457
260146
255950
251879
247952
244191
240628
237304
234267
231571
229266
227390
225951
224907
224158
223588
223163
222914
222784
222678
222553
222405
222237
222059
221874
221689
221506
221327
221153
220984
220820
220660
220506
220355
220208
220065
219923
219785
219648
219514
219382
219252
219125
219000
218880
218763
218648
218533
218420
218307
218197
218089
217981
217876
217772
217670
217569
217469
217369
217270
217173
217079
216987
216895
216807
216724
216644
216564
216480
216438
216374
216323
216275
216253
216285
216412
216645
216874
216852
216490
215659
215348
215136
214690
214459
214267
214060
213856
213660
213453
213255
213065
212879
212695
212511
212328
212146
211966
211790
211618
211452
211293
211138
210985
210831
210660
210434
210033
209120
206714
200069
182682
147882
112508
100874
100010
100000
100000
100000
100000
386906
386906
386906
386906
386906
386906
386906
386906
386906
386906
386906
386906
386906
386906
386906
386904
386879
386733
386289
385377
383885
381761
379003
375654
371782
367468
362796
357847
352694
347400
342017
336591
331154
325736
320357
315033
309778
304599
299503