/*--------------------------------*- C++ -*----------------------------------*\
  =========                 |
  \\      /  F ield         | OpenFOAM: The Open Source CFD Toolbox
   \\    /   O peration     | Website:  https://openfoam.org
    \\  /    A nd           | Version:  13
     \\/     M anipulation  |
\*---------------------------------------------------------------------------*/
FoamFile
{
    format      ascii;
    class       surfaceScalarField;
    location    "0.0012";
    object      phi;
}
// * * * * * * * * * * * * * * * * * * * * * * * * * * * * * * * * * * * * * //

dimensions      [1 0 -1 0 0 0 0];

internalField   nonuniform List<scalar> 
66301
(
-5.55112e-16
0
0
1.11022e-16
0
2.22045e-16
1.11022e-16
1.11022e-16
-3.33067e-16
0
-3.33067e-16
-3.33067e-16
-1.11022e-16
-2.22045e-16
-5.55112e-16
-4.44089e-16
-6.66134e-16
0
-5.55112e-16
-2.22045e-16
-1.11022e-15
-2.22045e-16
-3.33067e-16
-3.33067e-16
4.50862e-13
-5.55112e-16
1.1169e-09
4.44089e-15
3.18653e-07
1.91525e-12
1.52702e-05
1.0334e-10
0.00019194
1.46869e-09
0.00099275
8.43746e-09
0.00301151
2.74804e-08
0.00667204
6.37348e-08
0.0121714
1.19598e-07
0.0195132
1.94923e-07
0.0285502
2.87702e-07
0.0390376
3.948e-07
0.050685
5.1269e-07
0.063198
6.38016e-07
0.0763052
7.67899e-07
0.0897719
9.00012e-07
0.103405
1.03256e-06
0.117052
1.16419e-06
0.130598
1.29395e-06
0.143955
1.42118e-06
0.157064
1.54554e-06
0.169882
1.66707e-06
0.182384
1.78621e-06
0.194555
1.90057e-06
0.206387
2.01276e-06
0.217878
2.12275e-06
0.229032
2.2278e-06
0.239852
2.33116e-06
0.250346
2.42463e-06
0.260519
2.51209e-06
0.270377
2.60142e-06
0.279925
2.69584e-06
0.289166
2.79405e-06
0.298099
2.89041e-06
0.306721
2.9854e-06
0.315021
3.08067e-06
0.322984
3.17691e-06
0.330582
3.2746e-06
0.337778
3.37563e-06
0.34452
3.48401e-06
0.350737
3.60465e-06
0.356343
3.74227e-06
0.361241
3.89942e-06
0.365332
4.0758e-06
0.368535
4.27089e-06
0.370814
4.49804e-06
0.37221
4.73674e-06
0.372866
5.0441e-06
0.372966
5.77656e-06
0.372922
3.93311e-06
0.372575
5.16649e-06
0.371841
5.74576e-06
0.371007
5.51212e-06
0.370222
5.25398e-06
0.369508
5.2181e-06
0.368856
5.16178e-06
0.368256
5.09611e-06
0.367691
5.05714e-06
0.367148
5.0193e-06
0.36662
4.99116e-06
0.3661
4.98814e-06
0.365587
4.98944e-06
0.365077
4.98097e-06
0.364571
4.94993e-06
0.364068
4.93124e-06
0.363569
4.91064e-06
0.363074
4.90636e-06
0.362582
4.88916e-06
0.362096
4.86733e-06
0.361615
4.86464e-06
0.361141
4.81404e-06
0.360673
4.83184e-06
0.36021
4.76133e-06
0.359753
4.79184e-06
0.359302
4.73201e-06
0.358856
4.77396e-06
0.358413
4.6834e-06
0.357971
4.7544e-06
0.357529
4.66025e-06
0.35709
4.68934e-06
0.356657
4.67818e-06
0.35623
4.57401e-06
0.355809
4.6518e-06
0.355391
4.61932e-06
0.354975
4.51456e-06
0.354563
4.55656e-06
0.354154
4.55059e-06
0.353747
4.57827e-06
0.353343
4.43021e-06
0.352941
4.355e-06
0.352542
4.2651e-06
0.352149
4.31621e-06
0.351761
4.45434e-06
0.351376
4.53638e-06
0.350998
4.55079e-06
0.350627
4.39521e-06
0.350265
4.19335e-06
0.349904
4.04015e-06
0.349523
4.25291e-06
0.349114
4.44489e-06
0.348701
3.52502e-06
0.348317
9.27104e-07
0.347956
-2.68503e-06
0.347923
-4.11445e-06
0.348474
-8.4574e-06
0.350405
-1.4865e-05
0.355157
-2.17594e-05
0.365113
-2.65175e-05
0.383831
-2.84478e-05
0.416046
-2.75582e-05
0.466956
-2.7084e-05
0.539386
-2.78819e-05
0.627871
-2.40325e-05
0.713427
-1.24634e-05
0.772401
3.19584e-06
0.800934
1.16691e-05
0.805387
1.07563e-06
0.804802
2.1632e-07
0.803005
-2.1562e-06
0.800922
-4.60056e-06
0.798565
-6.70084e-06
0.796291
-8.02764e-06
0.794333
-8.31386e-06
0.792567
-8.04299e-06
0.791038
-7.60797e-06
0.789702
-7.23208e-06
0.788451
-6.97e-06
0.78718
-6.79464e-06
0.785839
-6.65898e-06
0.784434
-6.55595e-06
0.783
-6.48161e-06
0.781575
-6.42735e-06
0.780195
-6.3863e-06
0.778879
-6.35516e-06
0.777632
-6.33164e-06
0.776443
-6.31503e-06
0.775289
-6.30347e-06
0.774138
-6.2978e-06
0.772929
-6.3139e-06
0.771499
-6.37977e-06
0.76938
-6.48171e-06
0.765259
-6.554e-06
0.755323
-6.55321e-06
0.728529
-6.4675e-06
0.65491
-6.18987e-06
0.473711
-5.41458e-06
0.185646
-3.24383e-06
0.020012
-9.00169e-07
0.000334681
-7.45426e-08
5.85322e-07
-1.17369e-09
8.07072e-11
-1.49369e-12
6.21725e-15
-6.55032e-15
-4.996e-16
-7.77156e-16
-1.11022e-16
-5.55112e-16
3.33067e-16
-4.44089e-16
1.11022e-16
-1.11022e-16
2.22045e-16
-3.33067e-16
2.22045e-16
-4.44089e-16
-1.11022e-16
0
-1.11022e-16
-4.44089e-16
-2.22045e-16
-2.22045e-16
-1.11022e-16
-5.55112e-16
-6.66134e-16
-5.55112e-16
-5.55112e-16
-1.11022e-15
-3.33067e-16
-7.77156e-16
0
4.51528e-13
0
1.11695e-09
2.44249e-15
3.18667e-07
1.01552e-12
1.52707e-05
6.21333e-11
0.000191945
9.89484e-10
0.000992775
6.16445e-09
0.00301158
2.13535e-08
0.0066722
5.1903e-08
0.0121717
1.0093e-07
0.0195137
1.69081e-07
0.0285511
2.55042e-07
0.0390389
3.56205e-07
0.0506868
4.69329e-07
0.0632005
5.91117e-07
0.0763085
7.18591e-07
0.0897762
8.49264e-07
0.10341
9.81163e-07
0.117059
1.11279e-06
0.130606
1.24303e-06
0.143964
1.37114e-06
0.157075
1.49665e-06
0.169895
1.61944e-06
0.182399
1.74001e-06
0.194571
1.8574e-06
0.206405
1.96918e-06
0.217899
2.07919e-06
0.229054
2.18582e-06
0.239877
2.2894e-06
0.250373
2.3944e-06
0.260549
2.49363e-06
0.27041
2.58882e-06
0.27996
2.68668e-06
0.289204
2.78411e-06
0.29814
2.87999e-06
0.306765
2.97487e-06
0.315068
3.07006e-06
0.323034
3.16766e-06
0.330636
3.26892e-06
0.337835
3.37484e-06
0.34458
3.48773e-06
0.350801
3.61132e-06
0.356411
3.75002e-06
0.361313
3.90629e-06
0.365407
4.08074e-06
0.368614
4.27557e-06
0.370898
4.50976e-06
0.372298
4.77514e-06
0.372959
5.1116e-06
0.373068
5.12228e-06
0.373026
4.99358e-06
0.372683
5.05151e-06
0.371955
5.24903e-06
0.371127
5.52637e-06
0.370347
5.3422e-06
0.369638
5.26888e-06
0.368992
5.17409e-06
0.368396
5.11639e-06
0.367836
5.08619e-06
0.367298
5.04483e-06
0.366775
5.02087e-06
0.366261
5.02325e-06
0.365752
5.00695e-06
0.365248
5.00396e-06
0.364746
4.95265e-06
0.364248
4.95543e-06
0.363754
4.91198e-06
0.363264
4.91359e-06
0.362777
4.89526e-06
0.362295
4.83537e-06
0.36182
4.90305e-06
0.36135
4.73296e-06
0.360887
4.89188e-06
0.360429
4.66396e-06
0.359977
4.83655e-06
0.35953
4.61779e-06
0.359089
4.83064e-06
0.358651
4.48529e-06
0.358214
4.84295e-06
0.357777
4.51304e-06
0.357343
4.54027e-06
0.356914
4.78489e-06
0.356492
4.32018e-06
0.356076
4.50022e-06
0.355662
4.68613e-06
0.355251
4.27271e-06
0.354844
4.32444e-06
0.354439
4.39069e-06
0.354038
4.53369e-06
0.353638
4.0542e-06
0.35324
4.0687e-06
0.352846
4.13142e-06
0.352458
4.14259e-06
0.352074
4.09054e-06
0.351695
3.9903e-06
0.351321
4.00735e-06
0.350956
3.80754e-06
0.350599
3.52373e-06
0.350242
3.35044e-06
0.349867
3.32543e-06
0.349463
3.18701e-06
0.349055
2.1751e-06
0.348671
1.1363e-07
0.348307
-1.93765e-06
0.348271
-4.53011e-06
0.348811
-7.17152e-06
0.350722
-8.89674e-06
0.355445
-1.20141e-05
0.365364
-1.81197e-05
0.384038
-1.8136e-05
0.416208
-1.75294e-05
0.467075
-1.96021e-05
0.539469
-2.51429e-05
0.627935
-2.87692e-05
0.713506
-3.11017e-05
0.772523
-2.2191e-05
0.801102
-1.36132e-05
0.80557
-8.20556e-06
0.804997
-6.7921e-06
0.803202
-6.08802e-06
0.801116
-7.06353e-06
0.798753
-7.70317e-06
0.79647
-7.83061e-06
0.794504
-7.90224e-06
0.792729
-7.53936e-06
0.791192
-7.1303e-06
0.789849
-6.81465e-06
0.78859
-6.62826e-06
0.787312
-6.457e-06
0.785964
-6.31899e-06
0.784553
-6.204e-06
0.783111
-6.1109e-06
0.78168
-6.03304e-06
0.780292
-5.96695e-06
0.778969
-5.91268e-06
0.777716
-5.86913e-06
0.77652
-5.83532e-06
0.775359
-5.81028e-06
0.774201
-5.80012e-06
0.772986
-5.82119e-06
0.771548
-5.88158e-06
0.769422
-5.95284e-06
0.765294
-6.00183e-06
0.75535
-6.01208e-06
0.728549
-5.94716e-06
0.654923
-5.64444e-06
0.473718
-4.4034e-06
0.185649
-2.41769e-06
0.0200125
-5.95986e-07
0.000334694
-4.12584e-08
5.85351e-07
-5.10063e-10
8.07119e-11
-7.2875e-13
6.38378e-15
-6.10623e-16
-3.33067e-16
-9.4369e-16
-3.33067e-16
-4.44089e-16
2.22045e-16
-4.44089e-16
2.22045e-16
-1.11022e-16
-1.11022e-16
-5.55112e-16
-1.11022e-16
-3.33067e-16
2.22045e-16
-2.22045e-16
-1.11022e-16
-4.44089e-16
-3.33067e-16
-6.66134e-16
-2.22045e-16
-2.22045e-16
-3.33067e-16
-8.88178e-16
-6.66134e-16
-9.99201e-16
-3.33067e-16
-3.33067e-16
-2.22045e-16
4.51306e-13
2.22045e-16
1.11702e-09
1.88738e-15
3.1868e-07
7.90368e-13
1.52711e-05
5.01228e-11
0.000191949
8.0687e-10
0.000992786
5.07226e-09
0.00301161
1.78157e-08
0.00667224
4.40843e-08
0.0121718
8.7361e-08
0.0195138
1.48942e-07
0.0285512
2.28141e-07
0.039039
3.2286e-07
0.0506869
4.30217e-07
0.0632006
5.47089e-07
0.0763086
6.70515e-07
0.0897762
7.97934e-07
0.103411
9.27262e-07
0.117059
1.05689e-06
0.130606
1.18562e-06
0.143964
1.31263e-06
0.157075
1.43739e-06
0.169895
1.55965e-06
0.182399
1.67934e-06
0.194571
1.79699e-06
0.206405
1.90978e-06
0.217899
2.02024e-06
0.229055
2.12957e-06
0.239877
2.23461e-06
0.250373
2.33853e-06
0.260549
2.44047e-06
0.27041
2.53805e-06
0.27996
2.63318e-06
0.289204
2.7272e-06
0.29814
2.82203e-06
0.306765
2.91727e-06
0.315069
3.01288e-06
0.323034
3.11073e-06
0.330636
3.21298e-06
0.337835
3.32116e-06
0.34458
3.43693e-06
0.350801
3.56274e-06
0.356411
3.70211e-06
0.361313
3.8579e-06
0.365407
4.03203e-06
0.368614
4.22642e-06
0.370898
4.451e-06
0.372299
4.70127e-06
0.372959
5.00841e-06
0.373068
5.06592e-06
0.373026
5.30059e-06
0.372683
5.09972e-06
0.371955
5.07229e-06
0.371127
5.24366e-06
0.370347
5.31236e-06
0.369638
5.27223e-06
0.368992
5.19192e-06
0.368396
5.12295e-06
0.367836
5.09197e-06
0.367298
5.05177e-06
0.366775
5.02596e-06
0.366261
5.02462e-06
0.365752
4.99322e-06
0.365248
4.99822e-06
0.364746
4.93333e-06
0.364248
4.95415e-06
0.363754
4.89112e-06
0.363264
4.89831e-06
0.362777
4.87896e-06
0.362295
4.79101e-06
0.36182
4.91373e-06
0.36135
4.65005e-06
0.360887
4.92394e-06
0.360429
4.55973e-06
0.359977
4.85603e-06
0.35953
4.49817e-06
0.359089
4.86037e-06
0.358651
4.3097e-06
0.358214
4.90041e-06
0.357777
4.35233e-06
0.357343
4.40297e-06
0.356914
4.83651e-06
0.356492
4.07648e-06
0.356076
4.35693e-06
0.355662
4.69651e-06
0.355252
4.03257e-06
0.354844
4.11436e-06
0.35444
4.22159e-06
0.354038
4.43601e-06
0.353638
3.71251e-06
0.35324
3.81415e-06
0.352847
3.97023e-06
0.352458
3.92633e-06
0.352074
3.73231e-06
0.351695
3.50729e-06
0.351321
3.50973e-06
0.350956
3.22269e-06
0.350599
2.83211e-06
0.350242
2.73405e-06
0.349867
2.72351e-06
0.349464
2.34042e-06
0.349055
1.142e-06
0.348671
-7.84918e-07
0.348308
-1.99437e-06
0.348271
-4.4367e-06
0.348811
-5.49553e-06
0.350723
-7.66469e-06
0.355446
-1.07047e-05
0.36536
-1.38798e-05
0.38403
-1.49437e-05
0.416196
-1.52769e-05
0.467058
-1.76048e-05
0.539448
-2.38633e-05
0.627921
-3.21828e-05
0.7135
-3.72282e-05
0.772524
-2.95995e-05
0.801104
-2.36603e-05
0.805572
-1.2353e-05
0.804997
-1.0817e-05
0.803202
-9.77107e-06
0.801116
-9.26283e-06
0.798753
-8.69389e-06
0.796471
-8.03096e-06
0.794504
-7.6945e-06
0.792729
-7.30504e-06
0.791193
-6.91089e-06
0.789849
-6.62411e-06
0.78859
-6.42887e-06
0.787312
-6.26557e-06
0.785964
-6.1212e-06
0.784553
-5.994e-06
0.783111
-5.88554e-06
0.78168
-5.79242e-06
0.780292
-5.71275e-06
0.778969
-5.64732e-06
0.777716
-5.59537e-06
0.77652
-5.55741e-06
0.775359
-5.53463e-06
0.774201
-5.53291e-06
0.772985
-5.55711e-06
0.771547
-5.60119e-06
0.769422
-5.6485e-06
0.765293
-5.68272e-06
0.755349
-5.67366e-06
0.728548
-5.5463e-06
0.654923
-5.15317e-06
0.473719
-4.04054e-06
0.185651
-2.17924e-06
0.020013
-5.30862e-07
0.000334706
-3.59805e-08
5.85384e-07
-4.21795e-10
8.07165e-11
-5.4734e-13
7.32747e-15
-4.44089e-16
-1.11022e-16
-4.996e-16
-5.55112e-16
-4.44089e-16
-2.22045e-16
-5.55112e-16
-2.22045e-16
1.11022e-16
2.22045e-16
-2.22045e-16
-2.22045e-16
-6.66134e-16
-3.33067e-16
-7.77156e-16
-1.11022e-16
-5.55112e-16
0
-4.44089e-16
-2.22045e-16
-7.77156e-16
2.22045e-16
-7.77156e-16
1.11022e-16
-6.66134e-16
2.22045e-16
-6.66134e-16
-1.11022e-16
4.5175e-13
0
1.11708e-09
1.9984e-15
3.18692e-07
6.80567e-13
1.52715e-05
4.38125e-11
0.000191952
7.10155e-10
0.000992797
4.47966e-09
0.00301163
1.5784e-08
0.00667228
3.92396e-08
0.0121718
7.82558e-08
0.0195139
1.34401e-07
0.0285512
2.07437e-07
0.039039
2.95752e-07
0.050687
3.96887e-07
0.0632007
5.08017e-07
0.0763087
6.26338e-07
0.0897763
7.49324e-07
0.103411
8.74856e-07
0.117059
1.00126e-06
0.130606
1.12726e-06
0.143965
1.25195e-06
0.157075
1.37472e-06
0.169895
1.49522e-06
0.182399
1.61327e-06
0.194571
1.72892e-06
0.206405
1.84131e-06
0.217899
1.95072e-06
0.229055
2.05832e-06
0.239877
2.16385e-06
0.250373
2.26619e-06
0.260549
2.36783e-06
0.27041
2.46732e-06
0.27996
2.56269e-06
0.289204
2.65537e-06
0.29814
2.7489e-06
0.306765
2.84281e-06
0.315069
2.93704e-06
0.323034
3.03308e-06
0.330636
3.13355e-06
0.337835
3.24079e-06
0.34458
3.35668e-06
0.350801
3.48308e-06
0.356411
3.62255e-06
0.361313
3.77765e-06
0.365407
3.95049e-06
0.368614
4.14235e-06
0.370898
4.35485e-06
0.372299
4.58465e-06
0.372959
4.83032e-06
0.373068
4.98109e-06
0.373026
5.27507e-06
0.372683
5.15479e-06
0.371955
5.05695e-06
0.371127
5.03013e-06
0.370347
5.13392e-06
0.369638
5.19107e-06
0.368992
5.15746e-06
0.368396
5.10022e-06
0.367836
5.06199e-06
0.367298
5.02391e-06
0.366775
4.99366e-06
0.366261
4.98536e-06
0.365752
4.94214e-06
0.365248
4.95234e-06
0.364746
4.8799e-06
0.364248
4.91062e-06
0.363754
4.83715e-06
0.363264
4.84566e-06
0.362777
4.82755e-06
0.362295
4.72091e-06
0.36182
4.87205e-06
0.36135
4.55699e-06
0.360887
4.89126e-06
0.360429
4.45116e-06
0.359977
4.8256e-06
0.35953
4.37143e-06
0.359089
4.83191e-06
0.358651
4.14472e-06
0.358214
4.87167e-06
0.357777
4.20166e-06
0.357343
4.27135e-06
0.356914
4.79465e-06
0.356492
3.87074e-06
0.356076
4.22209e-06
0.355662
4.60438e-06
0.355251
3.81349e-06
0.354844
3.93234e-06
0.354439
4.03973e-06
0.354038
4.26498e-06
0.353638
3.40704e-06
0.35324
3.57345e-06
0.352846
3.75888e-06
0.352458
3.6566e-06
0.352074
3.35308e-06
0.351695
3.04742e-06
0.351321
3.05292e-06
0.350955
2.71321e-06
0.350599
2.23832e-06
0.350242
1.95608e-06
0.349866
1.95424e-06
0.349463
1.55336e-06
0.349055
2.78035e-07
0.348671
-1.59066e-06
0.348308
-2.79715e-06
0.348271
-4.56027e-06
0.34881
-5.49078e-06
0.350722
-7.45006e-06
0.355442
-1.00225e-05
0.365355
-1.22772e-05
0.384021
-1.38883e-05
0.41618
-1.51975e-05
0.467035
-1.81423e-05
0.539421
-2.41917e-05
0.627893
-3.14152e-05
0.713482
-3.3626e-05
0.77252
-2.92471e-05
0.801107
-2.36231e-05
0.805577
-1.37684e-05
0.805
-1.26755e-05
0.803203
-1.15372e-05
0.801116
-1.0476e-05
0.798753
-9.35357e-06
0.79647
-8.36666e-06
0.794504
-7.75353e-06
0.792729
-7.28214e-06
0.791192
-6.89201e-06
0.789849
-6.60823e-06
0.78859
-6.39282e-06
0.787312
-6.21446e-06
0.785964
-6.05548e-06
0.784552
-5.91284e-06
0.783111
-5.79075e-06
0.78168
-5.68709e-06
0.780292
-5.60005e-06
0.778969
-5.52946e-06
0.777715
-5.47349e-06
0.776519
-5.43346e-06
0.775359
-5.4107e-06
0.7742
-5.40632e-06
0.772985
-5.41768e-06
0.771547
-5.43982e-06
0.769421
-5.46125e-06
0.765293
-5.46159e-06
0.755349
-5.41766e-06
0.728548
-5.28802e-06
0.654923
-4.96515e-06
0.473721
-3.96282e-06
0.185653
-2.17062e-06
0.0200134
-5.30056e-07
0.000334719
-3.59877e-08
5.85417e-07
-4.21892e-10
8.07226e-11
-5.40623e-13
7.04992e-15
-6.10623e-16
-1.11022e-16
-2.22045e-16
-5.55112e-17
-3.33067e-16
-3.33067e-16
-3.33067e-16
-2.22045e-16
-3.33067e-16
-4.44089e-16
-4.44089e-16
-3.33067e-16
-4.44089e-16
-1.11022e-16
-6.66134e-16
-1.11022e-16
-7.77156e-16
-3.33067e-16
-2.22045e-16
-2.22045e-16
-7.77156e-16
-1.11022e-16
-7.77156e-16
0
-9.99201e-16
-6.66134e-16
-2.22045e-16
0
4.51639e-13
-3.33067e-16
1.11713e-09
9.99201e-16
3.18702e-07
5.84865e-13
1.52718e-05
3.79151e-11
0.000191955
6.18745e-10
0.000992807
3.93167e-09
0.00301165
1.39559e-08
0.00667232
3.49557e-08
0.0121719
7.02529e-08
0.0195139
1.21597e-07
0.0285513
1.8908e-07
0.0390391
2.71437e-07
0.0506871
3.66528e-07
0.0632008
4.71786e-07
0.0763088
5.84596e-07
0.0897764
7.02541e-07
0.103411
8.23548e-07
0.117059
9.45934e-07
0.130606
1.0684e-06
0.143965
1.18999e-06
0.157075
1.31002e-06
0.169895
1.42806e-06
0.182399
1.54383e-06
0.194572
1.65713e-06
0.206405
1.76786e-06
0.217899
1.87577e-06
0.229055
1.98157e-06
0.239877
2.08568e-06
0.250373
2.1871e-06
0.260549
2.28678e-06
0.27041
2.38475e-06
0.279961
2.48044e-06
0.289204
2.57263e-06
0.29814
2.66507e-06
0.306765
2.75856e-06
0.315069
2.85304e-06
0.323034
2.94915e-06
0.330636
3.04906e-06
0.337835
3.15547e-06
0.34458
3.27084e-06
0.350801
3.39723e-06
0.356411
3.53685e-06
0.361313
3.69182e-06
0.365408
3.86392e-06
0.368614
4.05343e-06
0.370898
4.25695e-06
0.372299
4.47072e-06
0.372959
4.67853e-06
0.373068
4.85375e-06
0.373026
5.06022e-06
0.372683
5.09217e-06
0.371955
5.02898e-06
0.371127
4.96533e-06
0.370347
4.97785e-06
0.369638
5.05873e-06
0.368991
5.0756e-06
0.368396
5.03822e-06
0.367836
4.99926e-06
0.367298
4.96181e-06
0.366775
4.92845e-06
0.366261
4.91617e-06
0.365752
4.86373e-06
0.365248
4.87811e-06
0.364746
4.79972e-06
0.364248
4.83649e-06
0.363754
4.75507e-06
0.363263
4.76255e-06
0.362777
4.74676e-06
0.362295
4.62539e-06
0.36182
4.79453e-06
0.36135
4.44591e-06
0.360887
4.81927e-06
0.360429
4.32272e-06
0.359977
4.7618e-06
0.35953
4.22072e-06
0.359089
4.76852e-06
0.358651
3.96885e-06
0.358214
4.79617e-06
0.357777
4.03447e-06
0.357343
4.12663e-06
0.356914
4.69681e-06
0.356492
3.65833e-06
0.356076
4.0712e-06
0.355662
4.45923e-06
0.355251
3.58136e-06
0.354844
3.74266e-06
0.354439
3.83785e-06
0.354038
4.05014e-06
0.353638
3.09897e-06
0.35324
3.31786e-06
0.352846
3.50886e-06
0.352458
3.35327e-06
0.352074
2.95357e-06
0.351695
2.57443e-06
0.351321
2.57772e-06
0.350955
2.24103e-06
0.350598
1.753e-06
0.350241
1.34857e-06
0.349866
1.18533e-06
0.349462
7.15759e-07
0.349054
-4.9462e-07
0.34867
-2.21288e-06
0.348307
-3.50698e-06
0.34827
-4.81703e-06
0.348809
-5.61385e-06
0.35072
-7.15925e-06
0.35544
-9.04236e-06
0.365351
-1.12024e-05
0.384015
-1.28689e-05
0.41617
-1.45619e-05
0.467019
-1.7675e-05
0.539399
-2.27088e-05
0.62787
-2.77242e-05
0.713468
-2.84824e-05
0.772515
-2.59545e-05
0.801109
-2.06222e-05
0.80558
-1.40364e-05
0.805002
-1.3296e-05
0.803204
-1.21597e-05
0.801116
-1.09874e-05
0.798754
-9.78343e-06
0.79647
-8.70711e-06
0.794504
-7.96285e-06
0.792729
-7.43071e-06
0.791192
-7.00455e-06
0.789849
-6.68544e-06
0.78859
-6.44285e-06
0.787312
-6.24198e-06
0.785964
-6.0684e-06
0.784552
-5.91629e-06
0.783111
-5.78306e-06
0.781679
-5.66209e-06
0.780292
-5.56063e-06
0.778969
-5.48048e-06
0.777715
-5.41617e-06
0.776519
-5.36684e-06
0.775358
-5.33374e-06
0.7742
-5.31674e-06
0.772984
-5.3136e-06
0.771546
-5.31342e-06
0.76942
-5.31282e-06
0.765292
-5.3076e-06
0.755349
-5.2923e-06
0.728548
-5.18869e-06
0.654924
-4.83524e-06
0.473722
-3.90776e-06
0.185655
-2.1448e-06
0.0200138
-5.2333e-07
0.000334731
-3.55074e-08
5.85448e-07
-4.1698e-10
8.07286e-11
-5.36793e-13
6.82787e-15
-7.77156e-16
5.55112e-17
-7.21645e-16
-7.77156e-16
1.11022e-16
2.22045e-16
-4.44089e-16
-3.33067e-16
-2.22045e-16
-2.22045e-16
-2.22045e-16
-2.22045e-16
-1.11022e-16
-1.11022e-16
-6.66134e-16
-3.33067e-16
-6.66134e-16
-2.22045e-16
-4.44089e-16
0
-5.55112e-16
2.22045e-16
-9.99201e-16
0
-6.66134e-16
2.22045e-16
-9.99201e-16
-1.11022e-16
4.5175e-13
-5.55112e-16
1.11718e-09
1.77636e-15
3.18711e-07
4.93383e-13
1.52721e-05
3.21686e-11
0.000191957
5.28983e-10
0.000992816
3.39357e-09
0.00301167
1.21719e-08
0.00667235
3.08037e-08
0.0121719
6.25169e-08
0.019514
1.09198e-07
0.0285514
1.71221e-07
0.0390392
2.47656e-07
0.0506872
3.36669e-07
0.0632009
4.35955e-07
0.0763089
5.43092e-07
0.0897765
6.55792e-07
0.103411
7.72041e-07
0.117059
8.90169e-07
0.130606
1.00885e-06
0.143965
1.12709e-06
0.157075
1.24416e-06
0.169895
1.35954e-06
0.182399
1.47289e-06
0.194572
1.58396e-06
0.206405
1.69268e-06
0.217899
1.79891e-06
0.229055
1.90296e-06
0.239878
2.00522e-06
0.250374
2.10555e-06
0.260549
2.20376e-06
0.27041
2.3002e-06
0.279961
2.39469e-06
0.289204
2.48709e-06
0.29814
2.57867e-06
0.306765
2.67111e-06
0.315069
2.765e-06
0.323034
2.86071e-06
0.330636
2.95979e-06
0.337835
3.06486e-06
0.34458
3.17887e-06
0.350801
3.3044e-06
0.356411
3.44366e-06
0.361313
3.59842e-06
0.365408
3.76974e-06
0.368615
3.95681e-06
0.370898
4.15436e-06
0.372299
4.35618e-06
0.372959
4.54282e-06
0.373068
4.72126e-06
0.373026
4.90752e-06
0.372683
5.00223e-06
0.371955
4.976e-06
0.371127
4.92075e-06
0.370347
4.8954e-06
0.369638
4.93205e-06
0.368991
4.96469e-06
0.368396
4.94937e-06
0.367836
4.91936e-06
0.367298
4.88199e-06
0.366775
4.84449e-06
0.36626
4.83178e-06
0.365752
4.77355e-06
0.365247
4.79166e-06
0.364746
4.70818e-06
0.364248
4.74748e-06
0.363754
4.65991e-06
0.363263
4.66384e-06
0.362777
4.6511e-06
0.362295
4.51786e-06
0.361819
4.6963e-06
0.36135
4.32947e-06
0.360887
4.72324e-06
0.360429
4.18679e-06
0.359977
4.67719e-06
0.35953
4.05783e-06
0.359089
4.68384e-06
0.358651
3.79304e-06
0.358214
4.69449e-06
0.357777
3.86116e-06
0.357343
3.97248e-06
0.356914
4.56642e-06
0.356492
3.4484e-06
0.356076
3.90907e-06
0.355662
4.28612e-06
0.355251
3.35056e-06
0.354843
3.54545e-06
0.354439
3.62492e-06
0.354038
3.81579e-06
0.353638
2.80425e-06
0.35324
3.05488e-06
0.352846
3.24011e-06
0.352457
3.04832e-06
0.352074
2.58414e-06
0.351695
2.14892e-06
0.351321
2.11832e-06
0.350955
1.77314e-06
0.350598
1.31079e-06
0.350241
8.82464e-07
0.349865
5.92311e-07
0.349461
1.24381e-08
0.349053
-1.16471e-06
0.348669
-2.73926e-06
0.348305
-3.93751e-06
0.348268
-5.01149e-06
0.348808
-5.62426e-06
0.350718
-6.82217e-06
0.355439
-8.44661e-06
0.365349
-1.00476e-05
0.384012
-1.15887e-05
0.416165
-1.34877e-05
0.467011
-1.6223e-05
0.539389
-1.98794e-05
0.62786
-2.31126e-05
0.713461
-2.38463e-05
0.772512
-2.24428e-05
0.801111
-1.82067e-05
0.805582
-1.38141e-05
0.805004
-1.32802e-05
0.803205
-1.22032e-05
0.801117
-1.10852e-05
0.798754
-9.9652e-06
0.796471
-8.91446e-06
0.794504
-8.14311e-06
0.792729
-7.58613e-06
0.791192
-7.13325e-06
0.789849
-6.78647e-06
0.78859
-6.51858e-06
0.787312
-6.2973e-06
0.785964
-6.10527e-06
0.784552
-5.93855e-06
0.783111
-5.79069e-06
0.781679
-5.65914e-06
0.780292
-5.54676e-06
0.778969
-5.45195e-06
0.777715
-5.37441e-06
0.776519
-5.31449e-06
0.775358
-5.27019e-06
0.7742
-5.24141e-06
0.772984
-5.22851e-06
0.771546
-5.21912e-06
0.76942
-5.21396e-06
0.765292
-5.21016e-06
0.755349
-5.19059e-06
0.728548
-5.0829e-06
0.654925
-4.73227e-06
0.473724
-3.81541e-06
0.185657
-2.08948e-06
0.0200143
-5.09319e-07
0.000334743
-3.45592e-08
5.8548e-07
-4.06074e-10
8.07337e-11
-5.2286e-13
7.10543e-15
-4.44089e-16
1.11022e-16
-7.21645e-16
-4.996e-16
1.11022e-16
-6.66134e-16
-3.33067e-16
-1.11022e-16
2.22045e-16
-2.22045e-16
-2.22045e-16
-4.44089e-16
-3.33067e-16
-4.44089e-16
-5.55112e-16
-3.33067e-16
-4.44089e-16
-3.33067e-16
-1.11022e-16
-3.33067e-16
-9.99201e-16
-3.33067e-16
-5.55112e-16
-3.33067e-16
-7.77156e-16
-2.22045e-16
-6.66134e-16
1.11022e-16
4.51528e-13
-4.44089e-16
1.11721e-09
1.22125e-15
3.18719e-07
4.09228e-13
1.52724e-05
2.67839e-11
0.000191959
4.4459e-10
0.000992824
2.88485e-09
0.00301169
1.04759e-08
0.00667238
2.68329e-08
0.012172
5.50666e-08
0.0195141
9.71607e-08
0.0285515
1.53749e-07
0.0390393
2.24232e-07
0.0506873
3.07095e-07
0.063201
4.00301e-07
0.076309
5.01628e-07
0.0897767
6.08916e-07
0.103411
7.20227e-07
0.11706
8.33913e-07
0.130606
9.48645e-07
0.143965
1.06339e-06
0.157075
1.17737e-06
0.169895
1.29001e-06
0.182399
1.40092e-06
0.194572
1.50983e-06
0.206405
1.61658e-06
0.217899
1.72114e-06
0.229055
1.8236e-06
0.239878
1.92427e-06
0.250374
2.0233e-06
0.260549
2.12042e-06
0.27041
2.21564e-06
0.279961
2.30904e-06
0.289204
2.40078e-06
0.298141
2.4915e-06
0.306765
2.58268e-06
0.315069
2.67549e-06
0.323034
2.77057e-06
0.330636
2.86899e-06
0.337836
2.97294e-06
0.34458
3.08537e-06
0.350801
3.20923e-06
0.356411
3.34709e-06
0.361313
3.50066e-06
0.365408
3.67057e-06
0.368615
3.8551e-06
0.370898
4.04911e-06
0.372299
4.24245e-06
0.372959
4.42558e-06
0.373068
4.58055e-06
0.373026
4.7762e-06
0.372683
4.87776e-06
0.371955
4.88876e-06
0.371127
4.8555e-06
0.370347
4.82479e-06
0.369638
4.82727e-06
0.368991
4.8567e-06
0.368396
4.8497e-06
0.367836
4.8305e-06
0.367298
4.7976e-06
0.366775
4.75651e-06
0.36626
4.74416e-06
0.365752
4.68127e-06
0.365247
4.70223e-06
0.364746
4.61394e-06
0.364248
4.65376e-06
0.363754
4.56265e-06
0.363263
4.56169e-06
0.362777
4.55315e-06
0.362295
4.41019e-06
0.361819
4.59174e-06
0.36135
4.21772e-06
0.360887
4.61729e-06
0.360429
4.05436e-06
0.359977
4.58431e-06
0.35953
3.89515e-06
0.359089
4.59062e-06
0.358651
3.62374e-06
0.358214
4.57946e-06
0.357777
3.69357e-06
0.357343
3.81849e-06
0.356914
4.42227e-06
0.356492
3.25223e-06
0.356076
3.74605e-06
0.355662
4.10349e-06
0.355251
3.13379e-06
0.354843
3.34829e-06
0.354439
3.41295e-06
0.354038
3.57898e-06
0.353638
2.53427e-06
0.35324
2.79635e-06
0.352846
2.96559e-06
0.352457
2.74511e-06
0.352074
2.24515e-06
0.351694
1.78793e-06
0.35132
1.72665e-06
0.350954
1.35587e-06
0.350597
8.9644e-07
0.35024
4.64952e-07
0.349864
1.35248e-07
0.349461
-4.87882e-07
0.349052
-1.63282e-06
0.348667
-3.11092e-06
0.348304
-4.19423e-06
0.348267
-5.13829e-06
0.348806
-5.633e-06
0.350717
-6.58368e-06
0.355437
-8.01967e-06
0.365348
-9.44825e-06
0.384011
-1.09633e-05
0.416164
-1.25431e-05
0.467009
-1.44335e-05
0.539387
-1.67743e-05
0.627858
-1.88887e-05
0.71346
-1.97081e-05
0.772513
-1.91338e-05
0.801113
-1.63861e-05
0.805584
-1.33137e-05
0.805006
-1.28931e-05
0.803206
-1.19114e-05
0.801118
-1.09124e-05
0.798755
-9.91967e-06
0.796471
-8.95473e-06
0.794504
-8.21783e-06
0.79273
-7.66897e-06
0.791193
-7.2111e-06
0.789849
-6.85387e-06
0.78859
-6.57514e-06
0.787312
-6.3443e-06
0.785964
-6.1427e-06
0.784552
-5.96314e-06
0.783111
-5.80259e-06
0.781679
-5.66025e-06
0.780292
-5.53675e-06
0.778969
-5.43096e-06
0.777715
-5.34344e-06
0.776519
-5.27285e-06
0.775358
-5.21815e-06
0.7742
-5.17882e-06
0.772984
-5.1534e-06
0.771546
-5.13548e-06
0.76942
-5.12507e-06
0.765292
-5.11532e-06
0.755349
-5.08116e-06
0.728549
-4.96104e-06
0.654926
-4.60913e-06
0.473726
-3.706e-06
0.185659
-2.02596e-06
0.0200147
-4.93091e-07
0.000334755
-3.34113e-08
5.8551e-07
-3.92146e-10
8.07388e-11
-5.04097e-13
7.43849e-15
-7.21645e-16
0
-6.66134e-16
-9.99201e-16
2.22045e-16
-3.33067e-16
-3.33067e-16
0
-3.33067e-16
0
-2.22045e-16
-4.44089e-16
-1.11022e-16
-4.44089e-16
-5.55112e-16
-3.33067e-16
-4.44089e-16
-3.33067e-16
-4.44089e-16
-3.33067e-16
-8.88178e-16
-1.11022e-16
-8.88178e-16
-3.33067e-16
-8.88178e-16
-2.22045e-16
-6.66134e-16
-1.11022e-16
4.50973e-13
-2.22045e-16
1.11725e-09
6.66134e-16
3.18725e-07
3.31069e-13
1.52726e-05
2.18726e-11
0.000191961
3.67256e-10
0.000992831
2.41618e-09
0.00301171
8.90308e-09
0.00667241
2.31238e-08
0.012172
4.80525e-08
0.0195141
8.57294e-08
0.0285516
1.37002e-07
0.0390394
2.0157e-07
0.0506874
2.78239e-07
0.0632011
3.6525e-07
0.0763091
4.606e-07
0.0897768
5.62284e-07
0.103411
6.68452e-07
0.11706
7.775e-07
0.130606
8.88097e-07
0.143965
9.99184e-07
0.157075
1.10994e-06
0.169895
1.21976e-06
0.182399
1.32818e-06
0.194572
1.4349e-06
0.206406
1.53971e-06
0.217899
1.64255e-06
0.229055
1.74348e-06
0.239878
1.84269e-06
0.250374
1.94036e-06
0.260549
2.03642e-06
0.27041
2.1307e-06
0.279961
2.22324e-06
0.289204
2.31422e-06
0.298141
2.40421e-06
0.306765
2.49436e-06
0.315069
2.58605e-06
0.323035
2.68029e-06
0.330636
2.77807e-06
0.337836
2.88111e-06
0.34458
2.99208e-06
0.350801
3.11403e-06
0.356411
3.24982e-06
0.361313
3.40134e-06
0.365408
3.56906e-06
0.368615
3.7507e-06
0.370898
3.94126e-06
0.372299
4.12882e-06
0.372959
4.31039e-06
0.373068
4.45196e-06
0.373026
4.64962e-06
0.372683
4.74592e-06
0.371955
4.78998e-06
0.371127
4.77178e-06
0.370347
4.75062e-06
0.369638
4.73757e-06
0.368991
4.75401e-06
0.368396
4.75295e-06
0.367836
4.73747e-06
0.367298
4.71161e-06
0.366775
4.66934e-06
0.36626
4.65766e-06
0.365752
4.59019e-06
0.365247
4.61312e-06
0.364746
4.52093e-06
0.364248
4.55991e-06
0.363754
4.46784e-06
0.363263
4.46079e-06
0.362777
4.45707e-06
0.362295
4.30612e-06
0.361819
4.48518e-06
0.36135
4.11315e-06
0.360887
4.5058e-06
0.360429
3.93042e-06
0.359977
4.48646e-06
0.35953
3.74106e-06
0.359089
4.49332e-06
0.358651
3.46644e-06
0.358214
4.45807e-06
0.357777
3.53734e-06
0.357343
3.66982e-06
0.356914
4.27117e-06
0.356492
3.07398e-06
0.356075
3.5857e-06
0.355662
3.91896e-06
0.355251
2.93515e-06
0.354843
3.155e-06
0.354439
3.20792e-06
0.354037
3.34872e-06
0.353637
2.29601e-06
0.35324
2.55491e-06
0.352846
2.70059e-06
0.352457
2.45121e-06
0.352073
1.92641e-06
0.351694
1.46797e-06
0.35132
1.39536e-06
0.350954
1.01581e-06
0.350597
5.51105e-07
0.35024
1.07692e-07
0.349864
-2.35967e-07
0.34946
-8.46087e-07
0.349051
-1.93688e-06
0.348666
-3.3191e-06
0.348303
-4.3176e-06
0.348265
-5.18723e-06
0.348805
-5.63842e-06
0.350716
-6.49362e-06
0.355436
-7.66568e-06
0.365347
-8.91722e-06
0.38401
-1.03102e-05
0.416163
-1.16398e-05
0.467009
-1.29226e-05
0.539387
-1.42904e-05
0.627859
-1.55438e-05
0.713461
-1.63601e-05
0.772514
-1.61492e-05
0.801115
-1.45743e-05
0.805586
-1.2537e-05
0.805007
-1.22439e-05
0.803208
-1.14009e-05
0.801119
-1.05392e-05
0.798756
-9.68074e-06
0.796472
-8.83012e-06
0.794505
-8.16168e-06
0.79273
-7.64635e-06
0.791193
-7.20538e-06
0.789849
-6.85636e-06
0.78859
-6.58187e-06
0.787312
-6.35256e-06
0.785964
-6.14973e-06
0.784553
-5.96585e-06
0.783111
-5.79998e-06
0.781679
-5.65221e-06
0.780292
-5.5223e-06
0.778969
-5.40901e-06
0.777715
-5.31198e-06
0.776519
-5.23043e-06
0.775358
-5.16404e-06
0.7742
-5.11216e-06
0.772984
-5.07322e-06
0.771546
-5.04625e-06
0.76942
-5.02825e-06
0.765292
-5.00748e-06
0.755349
-4.95854e-06
0.728549
-4.82879e-06
0.654927
-4.47592e-06
0.473728
-3.59265e-06
0.185661
-1.96101e-06
0.0200151
-4.76553e-07
0.000334766
-3.22407e-08
5.8554e-07
-3.77845e-10
8.07447e-11
-4.84834e-13
6.66134e-15
-6.66134e-16
-1.66533e-16
-5.55112e-16
-6.66134e-16
0
0
-3.33067e-16
-1.11022e-16
-6.66134e-16
1.11022e-16
-2.22045e-16
2.22045e-16
-1.11022e-16
0
-2.22045e-16
-1.11022e-16
-7.77156e-16
-6.66134e-16
1.11022e-16
-3.33067e-16
-6.66134e-16
-3.33067e-16
-9.99201e-16
-2.22045e-16
-9.99201e-16
-2.22045e-16
-6.66134e-16
-8.88178e-16
4.50973e-13
-3.33067e-16
1.11727e-09
-2.22045e-16
3.1873e-07
2.62346e-13
1.52728e-05
1.75095e-11
0.000191963
2.97885e-10
0.000992837
1.99229e-09
0.00301172
7.46916e-09
0.00667243
1.97103e-08
0.0121721
4.15359e-08
0.0195142
7.50116e-08
0.0285516
1.2116e-07
0.0390395
1.79948e-07
0.0506875
2.50481e-07
0.0632012
3.31281e-07
0.0763092
4.20571e-07
0.0897769
5.16507e-07
0.103411
6.17347e-07
0.11706
7.2154e-07
0.130606
8.2777e-07
0.143965
9.34959e-07
0.157075