/*--------------------------------*- C++ -*----------------------------------*\
  =========                 |
  \\      /  F ield         | OpenFOAM: The Open Source CFD Toolbox
   \\    /   O peration     | Website:  https://openfoam.org
    \\  /    A nd           | Version:  13
     \\/     M anipulation  |
\*---------------------------------------------------------------------------*/
FoamFile
{
    format      ascii;
    class       volScalarField;
    location    "0.0012";
    object      Qdot;
}
// * * * * * * * * * * * * * * * * * * * * * * * * * * * * * * * * * * * * * //

dimensions      [1 -1 -3 0 0 0 0];

internalField   nonuniform List<scalar> 
33334
(
1.57186e+09
1.57186e+09
1.57186e+09
1.57186e+09
1.57186e+09
1.57186e+09
1.57186e+09
1.57186e+09
1.57186e+09
1.57186e+09
1.57186e+09
1.57186e+09
1.57186e+09
1.57186e+09
1.57186e+09
1.57184e+09
1.57148e+09
1.56901e+09
1.56069e+09
1.5425e+09
1.51157e+09
1.46657e+09
1.40769e+09
1.33652e+09
1.25556e+09
1.16782e+09
1.07636e+09
9.84023e+08
8.93199e+08
8.05764e+08
7.23072e+08
6.46004e+08
5.75038e+08
5.10336e+08
4.51822e+08
3.99252e+08
3.52276e+08
3.10479e+08
2.7342e+08
2.4065e+08
2.11736e+08
1.86268e+08
1.63863e+08
1.44175e+08
1.26889e+08
1.11722e+08
9.84262e+07
8.67808e+07
7.65935e+07
6.76971e+07
5.99474e+07
5.32211e+07
4.74123e+07
4.24343e+07
3.82095e+07
3.4671e+07
3.17547e+07
2.93948e+07
2.7517e+07
2.60343e+07
2.4846e+07
2.3839e+07
2.29553e+07
2.22288e+07
2.16164e+07
2.10469e+07
2.04928e+07
1.99495e+07
1.94196e+07
1.89065e+07
1.84122e+07
1.79378e+07
1.74836e+07
1.70492e+07
1.6634e+07
1.62372e+07
1.58576e+07
1.54942e+07
1.5146e+07
1.4812e+07
1.44914e+07
1.41833e+07
1.38868e+07
1.36013e+07
1.33261e+07
1.3061e+07
1.28052e+07
1.25584e+07
1.23202e+07
1.20905e+07
1.18692e+07
1.16558e+07
1.14495e+07
1.12498e+07
1.10562e+07
1.08688e+07
1.06874e+07
1.05119e+07
1.03419e+07
1.01771e+07
1.00174e+07
9.86261e+06
9.71262e+06
9.56704e+06
9.42549e+06
9.28745e+06
9.15214e+06
9.01872e+06
8.88713e+06
8.75918e+06
8.63905e+06
8.5311e+06
8.43451e+06
8.33994e+06
8.2295e+06
8.07466e+06
7.77677e+06
7.18167e+06
6.07143e+06
4.34181e+06
2.32188e+06
779539
131758
9104.93
255.642
4.82806
0.166142
0.0236463
0.0114705
0.00972834
0.00947413
0.00951415
0.00968543
0.00988059
0.00996987
0.00994145
0.00987658
0.00970983
0.0095244
0.009319
0.0091723
0.00906393
0.00893274
0.00886211
0.00879265
0.00871948
0.00861757
0.00851334
0.00840942
0.00833252
0.00820946
0.00813113
0.00802382
0.00779264
0.00729626
0.00617977
0.00375076
0.000919695
3.64923e-05
5.3655e-07
1.22038e-07
1.11318e-07
1.11225e-07
1.11225e-07
1.11225e-07
1.11225e-07
1.57186e+09
1.57186e+09
1.57186e+09
1.57186e+09
1.57186e+09
1.57186e+09
1.57186e+09
1.57186e+09
1.57186e+09
1.57186e+09
1.57186e+09
1.57186e+09
1.57186e+09
1.57186e+09
1.57186e+09
1.57184e+09
1.57148e+09
1.56901e+09
1.56069e+09
1.5425e+09
1.51157e+09
1.46657e+09
1.40769e+09
1.33652e+09
1.25556e+09
1.16782e+09
1.07636e+09
9.84023e+08
8.93198e+08
8.05763e+08
7.23072e+08
6.46004e+08
5.75038e+08
5.10336e+08
4.51821e+08
3.99251e+08
3.52275e+08
3.10479e+08
2.73419e+08
2.4065e+08
2.11736e+08
1.86267e+08
1.63863e+08
1.44175e+08
1.26888e+08
1.11722e+08
9.84257e+07
8.67803e+07
7.6593e+07
6.76967e+07
5.99469e+07
5.32207e+07
4.74119e+07
4.24339e+07
3.82091e+07
3.46705e+07
3.17543e+07
2.93944e+07
2.75165e+07
2.60339e+07
2.48454e+07
2.38389e+07
2.29548e+07
2.22283e+07
2.1616e+07
2.10466e+07
2.04924e+07
1.99491e+07
1.94193e+07
1.89061e+07
1.84118e+07
1.79375e+07
1.74832e+07
1.70488e+07
1.66337e+07
1.62369e+07
1.58573e+07
1.54939e+07
1.51457e+07
1.48117e+07
1.44912e+07
1.4183e+07
1.38865e+07
1.3601e+07
1.33259e+07
1.30607e+07
1.2805e+07
1.25581e+07
1.23199e+07
1.20902e+07
1.18689e+07
1.16555e+07
1.14493e+07
1.12496e+07
1.1056e+07
1.08686e+07
1.06872e+07
1.05117e+07
1.03417e+07
1.01769e+07
1.00172e+07
9.8624e+06
9.71241e+06
9.56683e+06
9.42529e+06
9.28726e+06
9.15195e+06
9.01853e+06
8.88695e+06
8.75899e+06
8.63886e+06
8.5309e+06
8.4343e+06
8.33975e+06
8.22943e+06
8.07451e+06
7.77694e+06
7.18227e+06
6.07272e+06
4.34359e+06
2.32344e+06
780297
131927
9118.64
256.028
4.83392
0.166234
0.0236274
0.0114707
0.00972759
0.00947328
0.00951328
0.00968451
0.0098797
0.00996903
0.00994065
0.00987582
0.00970912
0.00952372
0.00931834
0.00917166
0.0090633
0.00893212
0.00886152
0.00879208
0.00871894
0.00861705
0.00851284
0.00840895
0.00833207
0.00820904
0.00813074
0.00802347
0.00779234
0.00729602
0.0061796
0.0037507
0.000919699
3.64934e-05
5.36563e-07
1.22039e-07
1.11318e-07
1.11225e-07
1.11225e-07
1.11225e-07
1.11225e-07
1.57186e+09
1.57186e+09
1.57186e+09
1.57186e+09
1.57186e+09
1.57186e+09
1.57186e+09
1.57186e+09
1.57186e+09
1.57186e+09
1.57186e+09
1.57186e+09
1.57186e+09
1.57186e+09
1.57186e+09
1.57184e+09
1.57148e+09
1.56901e+09
1.56069e+09
1.5425e+09
1.51157e+09
1.46656e+09
1.40769e+09
1.33652e+09
1.25556e+09
1.16782e+09
1.07636e+09
9.84022e+08
8.93197e+08
8.05762e+08
7.23071e+08
6.46003e+08
5.75037e+08
5.10335e+08
4.5182e+08
3.99251e+08
3.52275e+08
3.10478e+08
2.73419e+08
2.40649e+08
2.11735e+08
1.86267e+08
1.63863e+08
1.44174e+08
1.26888e+08
1.11721e+08
9.84252e+07
8.67799e+07
7.65926e+07
6.76962e+07
5.99465e+07
5.32202e+07
4.74114e+07
4.24334e+07
3.82086e+07
3.46701e+07
3.17538e+07
2.93939e+07
2.7516e+07
2.60334e+07
2.4845e+07
2.38385e+07
2.29544e+07
2.22278e+07
2.16155e+07
2.10461e+07
2.04919e+07
1.99486e+07
1.94188e+07
1.89056e+07
1.84114e+07
1.7937e+07
1.74827e+07
1.70484e+07
1.66332e+07
1.62364e+07
1.58569e+07
1.54934e+07
1.51452e+07
1.48113e+07
1.44907e+07
1.41826e+07
1.38861e+07
1.36005e+07
1.33254e+07
1.30603e+07
1.28045e+07
1.25577e+07
1.23195e+07
1.20898e+07
1.18685e+07
1.16551e+07
1.14489e+07
1.12492e+07
1.10556e+07
1.08682e+07
1.06868e+07
1.05113e+07
1.03413e+07
1.01765e+07
1.00168e+07
9.86202e+06
9.71203e+06
9.56646e+06
9.42492e+06
9.2869e+06
9.15159e+06
9.01817e+06
8.8866e+06
8.75867e+06
8.63853e+06
8.53053e+06
8.4339e+06
8.33935e+06
8.22916e+06
8.0743e+06
7.77704e+06
7.1829e+06
6.07403e+06
4.34548e+06
2.32528e+06
781312
132180
9141.56
256.748
4.84566
0.166503
0.0236411
0.0114714
0.00972661
0.00947215
0.00951204
0.00968325
0.00987845
0.00996787
0.00993954
0.00987477
0.00970814
0.0095228
0.00931747
0.00917081
0.00906249
0.00893134
0.00886078
0.00879138
0.00871828
0.00861644
0.00851227
0.00840843
0.00833159
0.0082086
0.00813035
0.00802314
0.00779208
0.00729583
0.0061795
0.00375068
0.000919713
3.64946e-05
5.36575e-07
1.22039e-07
1.11318e-07
1.11225e-07
1.11225e-07
1.11225e-07
1.11225e-07
1.57186e+09
1.57186e+09
1.57186e+09
1.57186e+09
1.57186e+09
1.57186e+09
1.57186e+09
1.57186e+09
1.57186e+09
1.57186e+09
1.57186e+09
1.57186e+09
1.57186e+09
1.57186e+09
1.57186e+09
1.57184e+09
1.57148e+09
1.56901e+09
1.56069e+09
1.5425e+09
1.51157e+09
1.46656e+09
1.40769e+09
1.33652e+09
1.25556e+09
1.16781e+09
1.07636e+09
9.84021e+08
8.93196e+08
8.05761e+08
7.2307e+08
6.46002e+08
5.75037e+08
5.10334e+08
4.5182e+08
3.9925e+08
3.52274e+08
3.10478e+08
2.73418e+08
2.40649e+08
2.11735e+08
1.86266e+08
1.63862e+08
1.44174e+08
1.26887e+08
1.11721e+08
9.84249e+07
8.67796e+07
7.65923e+07
6.76959e+07
5.99462e+07
5.32199e+07
4.74112e+07
4.24332e+07
3.82083e+07
3.46698e+07
3.17536e+07
2.93936e+07
2.75158e+07
2.60331e+07
2.48447e+07
2.38383e+07
2.29541e+07
2.22275e+07
2.16152e+07
2.10458e+07
2.04917e+07
1.99483e+07
1.94185e+07
1.89053e+07
1.8411e+07
1.79367e+07
1.74824e+07
1.7048e+07
1.66329e+07
1.62361e+07
1.58565e+07
1.54931e+07
1.51449e+07
1.48109e+07
1.44904e+07
1.41822e+07
1.38858e+07
1.36002e+07
1.33251e+07
1.30599e+07
1.28042e+07
1.25573e+07
1.23191e+07
1.20895e+07
1.18681e+07
1.16548e+07
1.14485e+07
1.12488e+07
1.10553e+07
1.08678e+07
1.06865e+07
1.0511e+07
1.0341e+07
1.01762e+07
1.00164e+07
9.86168e+06
9.7117e+06
9.56612e+06
9.42459e+06
9.28657e+06
9.15126e+06
9.01785e+06
8.88627e+06
8.75833e+06
8.6382e+06
8.53021e+06
8.43356e+06
8.339e+06
8.22886e+06
8.07407e+06
7.777e+06
7.18322e+06
6.07493e+06
4.34693e+06
2.32674e+06
782132
132391
9161.23
257.371
4.856
0.166696
0.0236537
0.0114721
0.00972592
0.00947133
0.0095112
0.00968235
0.00987757
0.00996705
0.00993876
0.00987404
0.00970748
0.00952219
0.00931691
0.00917029
0.009062
0.00893089
0.00886036
0.008791
0.00871794
0.00861614
0.00851201
0.0084082
0.0083314
0.00820844
0.00813022
0.00802304
0.007792
0.00729579
0.0061795
0.00375071
0.00091973
3.64957e-05
5.36587e-07
1.22039e-07
1.11318e-07
1.11225e-07
1.11225e-07
1.11225e-07
1.11225e-07
1.57186e+09
1.57186e+09
1.57186e+09
1.57186e+09
1.57186e+09
1.57186e+09
1.57186e+09
1.57186e+09
1.57186e+09
1.57186e+09
1.57186e+09
1.57186e+09
1.57186e+09
1.57186e+09
1.57186e+09
1.57184e+09
1.57148e+09
1.56901e+09
1.56069e+09
1.5425e+09
1.51157e+09
1.46656e+09
1.40769e+09
1.33652e+09
1.25556e+09
1.16781e+09
1.07636e+09
9.8402e+08
8.93196e+08
8.05761e+08
7.23069e+08
6.46002e+08
5.75036e+08
5.10334e+08
4.51819e+08
3.9925e+08
3.52274e+08
3.10477e+08
2.73418e+08
2.40648e+08
2.11735e+08
1.86266e+08
1.63862e+08
1.44174e+08
1.26887e+08
1.11721e+08
9.84248e+07
8.67794e+07
7.65921e+07
6.76958e+07
5.99461e+07
5.32198e+07
4.7411e+07
4.2433e+07
3.82082e+07
3.46697e+07
3.17534e+07
2.93935e+07
2.75156e+07
2.6033e+07
2.48446e+07
2.38382e+07
2.29541e+07
2.22274e+07
2.16151e+07
2.10457e+07
2.04915e+07
1.99482e+07
1.94184e+07
1.89052e+07
1.84109e+07
1.79365e+07
1.74823e+07
1.70479e+07
1.66328e+07
1.62359e+07
1.58564e+07
1.5493e+07
1.51447e+07
1.48108e+07
1.44902e+07
1.41821e+07
1.38856e+07
1.36e+07
1.33249e+07
1.30597e+07
1.2804e+07
1.25572e+07
1.2319e+07
1.20893e+07
1.1868e+07
1.16546e+07
1.14484e+07
1.12486e+07
1.10551e+07
1.08676e+07
1.06863e+07
1.05108e+07
1.03408e+07
1.0176e+07
1.00162e+07
9.86148e+06
9.71149e+06
9.56592e+06
9.42438e+06
9.28636e+06
9.15106e+06
9.01765e+06
8.88607e+06
8.75812e+06
8.63798e+06
8.52999e+06
8.43335e+06
8.33879e+06
8.22864e+06
8.07391e+06
7.77693e+06
7.18333e+06
6.07531e+06
4.34758e+06
2.32742e+06
782526
132495
9171.23
257.7
4.86164
0.166826
0.023661
0.0114726
0.00972562
0.00947098
0.00951082
0.00968194
0.00987717
0.00996669
0.00993842
0.00987373
0.00970721
0.00952195
0.00931669
0.0091701
0.00906183
0.00893073
0.00886022
0.00879088
0.00871784
0.00861605
0.00851194
0.00840815
0.00833136
0.00820841
0.0081302
0.00802302
0.007792
0.0072958
0.00617951
0.00375073
0.000919746
3.64969e-05
5.36599e-07
1.2204e-07
1.11318e-07
1.11225e-07
1.11225e-07
1.11225e-07
1.11225e-07
1.57186e+09
1.57186e+09
1.57186e+09
1.57186e+09
1.57186e+09
1.57186e+09
1.57186e+09
1.57186e+09
1.57186e+09
1.57186e+09
1.57186e+09
1.57186e+09
1.57186e+09
1.57186e+09
1.57186e+09
1.57184e+09
1.57148e+09
1.56901e+09
1.56069e+09
1.5425e+09
1.51157e+09
1.46656e+09
1.40769e+09
1.33652e+09
1.25556e+09
1.16781e+09
1.07636e+09
9.84019e+08
8.93195e+08
8.0576e+08
7.23069e+08
6.46001e+08
5.75035e+08
5.10333e+08
4.51819e+08
3.99249e+08
3.52273e+08
3.10477e+08
2.73418e+08
2.40648e+08
2.11735e+08
1.86266e+08
1.63862e+08
1.44174e+08
1.26887e+08
1.11721e+08
9.84246e+07
8.67793e+07
7.6592e+07
6.76957e+07
5.9946e+07
5.32197e+07
4.7411e+07
4.2433e+07
3.82081e+07
3.46696e+07
3.17534e+07
2.93934e+07
2.75156e+07
2.6033e+07
2.48446e+07
2.38381e+07
2.2954e+07
2.22274e+07
2.16151e+07
2.10457e+07
2.04915e+07
1.99482e+07
1.94183e+07
1.89052e+07
1.84109e+07
1.79365e+07
1.74823e+07
1.70479e+07
1.66327e+07
1.62359e+07
1.58563e+07
1.54929e+07
1.51447e+07
1.48107e+07
1.44901e+07
1.4182e+07
1.38855e+07
1.36e+07
1.33248e+07
1.30597e+07
1.28039e+07
1.25571e+07
1.23189e+07
1.20892e+07
1.18679e+07
1.16545e+07
1.14483e+07
1.12486e+07
1.1055e+07
1.08676e+07
1.06862e+07
1.05107e+07
1.03407e+07
1.01759e+07
1.00161e+07
9.8614e+06
9.71141e+06
9.56583e+06
9.42429e+06
9.28627e+06
9.15096e+06
9.01756e+06
8.88598e+06
8.75802e+06
8.63788e+06
8.52989e+06
8.43325e+06
8.33869e+06
8.22854e+06
8.07382e+06
7.77688e+06
7.18334e+06
6.07542e+06
4.34777e+06
2.32761e+06
782642
132527
9174.36
257.809
4.86366
0.166877
0.0236642
0.0114729
0.00972555
0.00947088
0.00951071
0.00968183
0.00987705
0.00996659
0.00993833
0.00987365
0.00970713
0.00952189
0.00931664
0.00917005
0.00906179
0.0089307
0.0088602
0.00879086
0.00871782
0.00861604
0.00851194
0.00840814
0.00833136
0.00820841
0.0081302
0.00802303
0.007792
0.0072958
0.00617953
0.00375076
0.000919762
3.6498e-05
5.36611e-07
1.2204e-07
1.11318e-07
1.11225e-07
1.11225e-07
1.11225e-07
1.11225e-07
1.57186e+09
1.57186e+09
1.57186e+09
1.57186e+09
1.57186e+09
1.57186e+09
1.57186e+09
1.57186e+09
1.57186e+09
1.57186e+09
1.57186e+09
1.57186e+09
1.57186e+09
1.57186e+09
1.57186e+09
1.57184e+09
1.57148e+09
1.56901e+09
1.56069e+09
1.5425e+09
1.51157e+09
1.46656e+09
1.40769e+09
1.33652e+09
1.25556e+09
1.16781e+09
1.07636e+09
9.84019e+08
8.93194e+08
8.05759e+08
7.23068e+08
6.46e+08
5.75035e+08
5.10333e+08
4.51818e+08
3.99249e+08
3.52273e+08
3.10477e+08
2.73417e+08
2.40648e+08
2.11734e+08
1.86266e+08
1.63862e+08
1.44173e+08
1.26887e+08
1.1172e+08
9.84245e+07
8.67792e+07
7.6592e+07
6.76956e+07
5.99459e+07
5.32197e+07
4.74109e+07
4.24329e+07
3.82081e+07
3.46695e+07
3.17533e+07
2.93934e+07
2.75155e+07
2.60329e+07
2.48445e+07
2.38381e+07
2.2954e+07
2.22274e+07
2.16151e+07
2.10457e+07
2.04915e+07
1.99482e+07
1.94183e+07
1.89052e+07
1.84109e+07
1.79365e+07
1.74823e+07
1.70479e+07
1.66327e+07
1.62359e+07
1.58563e+07
1.54929e+07
1.51447e+07
1.48107e+07
1.44901e+07
1.4182e+07
1.38855e+07
1.36e+07
1.33248e+07
1.30597e+07
1.28039e+07
1.25571e+07
1.23189e+07
1.20892e+07
1.18679e+07
1.16545e+07
1.14483e+07
1.12485e+07
1.1055e+07
1.08675e+07
1.06862e+07
1.05107e+07
1.03407e+07
1.01759e+07
1.00161e+07
9.86137e+06
9.71138e+06
9.56581e+06
9.42427e+06
9.28624e+06
9.15093e+06
9.01753e+06
8.88595e+06
8.758e+06
8.63785e+06
8.52986e+06
8.43322e+06
8.33866e+06
8.22851e+06
8.07378e+06
7.77684e+06
7.18333e+06
6.07542e+06
4.34779e+06
2.32764e+06
782660
132531
9174.9
257.831
4.86415
0.166893
0.0236655
0.0114731
0.00972556
0.00947088
0.0095107
0.00968181
0.00987703
0.00996658
0.00993832
0.00987364
0.00970713
0.00952189
0.00931664
0.00917006
0.00906179
0.0089307
0.0088602
0.00879086
0.00871783
0.00861605
0.00851194
0.00840815
0.00833136
0.00820841
0.0081302
0.00802303
0.00779201
0.00729581
0.00617954
0.00375078
0.000919777
3.64991e-05
5.36623e-07
1.2204e-07
1.11318e-07
1.11225e-07
1.11225e-07
1.11225e-07
1.11225e-07
1.57186e+09
1.57186e+09
1.57186e+09
1.57186e+09
1.57186e+09
1.57186e+09
1.57186e+09
1.57186e+09
1.57186e+09
1.57186e+09
1.57186e+09
1.57186e+09
1.57186e+09
1.57186e+09
1.57186e+09
1.57184e+09
1.57148e+09
1.56901e+09
1.56069e+09
1.5425e+09
1.51157e+09
1.46656e+09
1.40769e+09
1.33652e+09
1.25556e+09
1.16781e+09
1.07636e+09
9.84018e+08
8.93193e+08
8.05758e+08
7.23067e+08
6.46e+08
5.75034e+08
5.10332e+08
4.51818e+08
3.99248e+08
3.52273e+08
3.10476e+08
2.73417e+08
2.40648e+08
2.11734e+08
1.86266e+08
1.63861e+08
1.44173e+08
1.26887e+08
1.1172e+08
9.84244e+07
8.67791e+07
7.65919e+07
6.76955e+07
5.99458e+07
5.32196e+07
4.74108e+07
4.24328e+07
3.8208e+07
3.46695e+07
3.17533e+07
2.93933e+07
2.75155e+07
2.60329e+07
2.48445e+07
2.38381e+07
2.2954e+07
2.22274e+07
2.16151e+07
2.10457e+07
2.04915e+07
1.99482e+07
1.94183e+07
1.89052e+07
1.84109e+07
1.79365e+07
1.74823e+07
1.70479e+07
1.66327e+07
1.62359e+07
1.58563e+07
1.54929e+07
1.51447e+07
1.48107e+07
1.44901e+07
1.4182e+07
1.38855e+07
1.36e+07
1.33248e+07
1.30597e+07
1.28039e+07
1.25571e+07
1.23189e+07
1.20892e+07
1.18679e+07
1.16545e+07
1.14483e+07
1.12485e+07
1.1055e+07
1.08675e+07
1.06862e+07
1.05107e+07
1.03407e+07
1.01758e+07
1.00161e+07
9.86137e+06
9.71138e+06
9.5658e+06
9.42426e+06
9.28623e+06
9.15093e+06
9.01752e+06
8.88594e+06
8.75799e+06
8.63785e+06
8.52985e+06
8.43321e+06
8.33865e+06
8.2285e+06
8.07377e+06
7.77682e+06
7.1833e+06
6.07539e+06
4.34777e+06
2.32762e+06
782650
132530
9174.81
257.832
4.86424
0.166898
0.0236662
0.0114732
0.00972559
0.0094709
0.00951071
0.00968182
0.00987705
0.00996659
0.00993833
0.00987366
0.00970715
0.00952191
0.00931666
0.00917007
0.0090618
0.00893071
0.00886021
0.00879087
0.00871783
0.00861606
0.00851195
0.00840816
0.00833137
0.00820842
0.00813021
0.00802304
0.00779202
0.00729582
0.00617956
0.0037508
0.000919792
3.65002e-05
5.36634e-07
1.2204e-07
1.11318e-07
1.11225e-07
1.11225e-07
1.11225e-07
1.11225e-07
1.57186e+09
1.57186e+09
1.57186e+09
1.57186e+09
1.57186e+09
1.57186e+09
1.57186e+09
1.57186e+09
1.57186e+09
1.57186e+09
1.57186e+09
1.57186e+09
1.57186e+09
1.57186e+09
1.57186e+09
1.57184e+09
1.57148e+09
1.56901e+09
1.56069e+09
1.5425e+09
1.51157e+09
1.46656e+09
1.40769e+09
1.33652e+09
1.25556e+09
1.16781e+09
1.07636e+09
9.84017e+08
8.93193e+08
8.05758e+08
7.23067e+08
6.45999e+08
5.75034e+08
5.10332e+08
4.51817e+08
3.99248e+08
3.52272e+08
3.10476e+08
2.73417e+08
2.40647e+08
2.11734e+08
1.86265e+08
1.63861e+08
1.44173e+08
1.26886e+08
1.1172e+08
9.84243e+07
8.6779e+07
7.65918e+07
6.76954e+07
5.99458e+07
5.32195e+07
4.74108e+07
4.24328e+07
3.8208e+07
3.46694e+07
3.17532e+07
2.93933e+07
2.75154e+07
2.60328e+07
2.48445e+07
2.38381e+07
2.2954e+07
2.22274e+07
2.16151e+07
2.10457e+07
2.04915e+07
1.99482e+07
1.94183e+07
1.89052e+07
1.84109e+07
1.79365e+07
1.74823e+07
1.70479e+07
1.66327e+07
1.62359e+07
1.58563e+07
1.54929e+07
1.51447e+07
1.48107e+07
1.44901e+07
1.4182e+07
1.38855e+07
1.36e+07
1.33248e+07
1.30597e+07
1.28039e+07
1.25571e+07
1.23189e+07
1.20892e+07
1.18679e+07
1.16545e+07
1.14483e+07
1.12485e+07
1.1055e+07
1.08675e+07
1.06862e+07
1.05107e+07
1.03407e+07
1.01759e+07
1.00161e+07
9.86137e+06
9.71138e+06
9.5658e+06
9.42426e+06
9.28624e+06
9.15093e+06
9.01752e+06
8.88594e+06
8.75799e+06
8.63785e+06
8.52985e+06
8.43321e+06
8.33865e+06
8.2285e+06
8.07376e+06
7.77681e+06
7.18327e+06
6.07534e+06
4.3477e+06
2.32756e+06
782622
132523
9174.39
257.824
4.86419
0.166899
0.0236665
0.0114733
0.00972563
0.00947093
0.00951074
0.00968185
0.00987707
0.00996662
0.00993836
0.00987368
0.00970717
0.00952193
0.00931668
0.00917008
0.00906182
0.00893073
0.00886022
0.00879088
0.00871784
0.00861607
0.00851196
0.00840817
0.00833138
0.00820843
0.00813022
0.00802304
0.00779202
0.00729583
0.00617957
0.00375083
0.000919807
3.65012e-05
5.36645e-07
1.22041e-07
1.11318e-07
1.11225e-07
1.11225e-07
1.11225e-07
1.11225e-07
1.57186e+09
1.57186e+09
1.57186e+09
1.57186e+09
1.57186e+09
1.57186e+09
1.57186e+09
1.57186e+09
1.57186e+09
1.57186e+09
1.57186e+09
1.57186e+09
1.57186e+09
1.57186e+09
1.57186e+09
1.57184e+09
1.57148e+09
1.56901e+09
1.56069e+09
1.5425e+09
1.51157e+09
1.46656e+09
1.40769e+09
1.33652e+09
1.25556e+09
1.16781e+09
1.07635e+09
9.84017e+08
8.93192e+08
8.05757e+08
7.23066e+08
6.45999e+08
5.75033e+08
5.10331e+08
4.51817e+08
3.99248e+08
3.52272e+08
3.10476e+08
2.73417e+08
2.40647e+08
2.11734e+08
1.86265e+08
1.63861e+08
1.44173e+08
1.26886e+08
1.1172e+08
9.84242e+07
8.67789e+07
7.65917e+07
6.76954e+07
5.99457e+07
5.32194e+07
4.74107e+07
4.24327e+07
3.82079e+07
3.46694e+07
3.17532e+07
2.93932e+07
2.75154e+07
2.60328e+07
2.48444e+07
2.3838e+07
2.29539e+07
2.22274e+07
2.16151e+07
2.10457e+07
2.04915e+07
1.99482e+07
1.94183e+07
1.89052e+07
1.84109e+07
1.79365e+07
1.74823e+07
1.70479e+07
1.66327e+07
1.62359e+07
1.58563e+07
1.54929e+07
1.51447e+07
1.48107e+07
1.44901e+07
1.4182e+07
1.38855e+07
1.36e+07
1.33248e+07
1.30597e+07
1.28039e+07
1.25571e+07
1.23189e+07
1.20892e+07
1.18679e+07
1.16545e+07
1.14483e+07
1.12485e+07
1.1055e+07
1.08675e+07
1.06862e+07
1.05107e+07
1.03407e+07
1.01759e+07
1.00161e+07
9.86137e+06
9.71138e+06
9.5658e+06
9.42426e+06
9.28624e+06
9.15093e+06
9.01753e+06
8.88594e+06
8.758e+06
8.63786e+06
8.52986e+06
8.43322e+06
8.33866e+06
8.22851e+06
8.07377e+06
7.7768e+06
7.18324e+06
6.07528e+06
4.34762e+06
2.32749e+06
782583
132515
9173.7
257.808
4.86403
0.166898
0.0236666
0.0114734
0.00972567
0.00947096
0.00951077
0.00968188
0.00987711
0.00996665
0.00993839
0.00987371
0.0097072
0.00952195
0.0093167
0.0091701
0.00906183
0.00893074
0.00886023
0.00879089
0.00871786
0.00861608
0.00851197
0.00840818
0.00833139
0.00820844
0.00813022
0.00802305
0.00779203
0.00729583
0.00617959
0.00375085
0.000919822
3.65022e-05
5.36655e-07
1.22041e-07
1.11318e-07
1.11225e-07
1.11225e-07
1.11225e-07
1.11225e-07
1.57186e+09
1.57186e+09
1.57186e+09
1.57186e+09
1.57186e+09
1.57186e+09
1.57186e+09
1.57186e+09
1.57186e+09
1.57186e+09
1.57186e+09
1.57186e+09
1.57186e+09
1.57186e+09
1.57186e+09
1.57184e+09
1.57148e+09
1.56901e+09
1.56069e+09
1.5425e+09
1.51157e+09
1.46656e+09
1.40769e+09
1.33652e+09
1.25555e+09
1.16781e+09
1.07635e+09
9.84016e+08
8.93191e+08
8.05756e+08
7.23066e+08
6.45998e+08
5.75033e+08
5.10331e+08
4.51817e+08
3.99247e+08
3.52272e+08
3.10476e+08
2.73416e+08
2.40647e+08
2.11733e+08
1.86265e+08
1.63861e+08
1.44173e+08
1.26886e+08
1.1172e+08
9.84241e+07
8.67788e+07
7.65916e+07
6.76953e+07
5.99456e+07
5.32194e+07
4.74106e+07
4.24326e+07
3.82078e+07
3.46693e+07
3.17531e+07
2.93932e+07
2.75153e+07
2.60328e+07
2.48444e+07
2.3838e+07
2.29539e+07
2.22274e+07
2.16151e+07
2.10457e+07
2.04915e+07
1.99482e+07
1.94183e+07
1.89052e+07
1.84109e+07
1.79365e+07
1.74823e+07
1.70479e+07
1.66327e+07
1.62359e+07
1.58563e+07
1.54929e+07
1.51447e+07
1.48107e+07
1.44901e+07
1.4182e+07
1.38855e+07
1.36e+07
1.33248e+07
1.30597e+07
1.28039e+07
1.25571e+07
1.23189e+07
1.20892e+07
1.18679e+07
1.16545e+07
1.14483e+07
1.12485e+07
1.1055e+07
1.08675e+07
1.06862e+07
1.05107e+07
1.03407e+07
1.01759e+07
1.00161e+07
9.86138e+06
9.71138e+06
9.56581e+06
9.42427e+06
9.28624e+06
9.15094e+06
9.01753e+06
8.88595e+06
8.758e+06
8.63786e+06
8.52987e+06
8.43322e+06
8.33867e+06
8.22852e+06
8.07377e+06
7.7768e+06
7.18323e+06
6.07524e+06
4.34755e+06
2.32742e+06
782547
132506
9172.99
257.789
4.86382
0.166895
0.0236666
0.0114734
0.00972571
0.00947099
0.0095108
0.00968191
0.00987714
0.00996668
0.00993842
0.00987374
0.00970723
0.00952198
0.00931672
0.00917012
0.00906185
0.00893076
0.00886024
0.00879091
0.00871787
0.00861609
0.00851198
0.00840819
0.00833139
0.00820844
0.00813023
0.00802306
0.00779204
0.00729585
0.0061796
0.00375087
0.000919836
3.65032e-05
5.36665e-07
1.22041e-07
1.11318e-07
1.11225e-07
1.11225e-07
1.11225e-07
1.11225e-07
1.57186e+09
1.57186e+09
1.57186e+09
1.57186e+09
1.57186e+09
1.57186e+09
1.57186e+09
1.57186e+09
1.57186e+09
1.57186e+09
1.57186e+09
1.57186e+09
1.57186e+09
1.57186e+09
1.57186e+09
1.57184e+09
1.57148e+09
1.56901e+09
1.56069e+09
1.5425e+09
1.51157e+09
1.46656e+09
1.40769e+09
1.33652e+09
1.25555e+09
1.16781e+09
1.07635e+09
9.84015e+08
8.93191e+08
8.05756e+08
7.23065e+08
6.45998e+08
5.75032e+08
5.1033e+08
4.51816e+08
3.99247e+08
3.52271e+08
3.10475e+08
2.73416e+08
2.40647e+08
2.11733e+08
1.86265e+08
1.63861e+08
1.44173e+08
1.26886e+08
1.1172e+08
9.8424e+07
8.67787e+07
7.65915e+07
6.76952e+07
5.99455e+07
5.32193e+07
4.74106e+07
4.24326e+07
3.82078e+07
3.46692e+07
3.1753e+07
2.93931e+07
2.75153e+07
2.60327e+07
2.48443e+07
2.3838e+07
2.29539e+07
2.22274e+07
2.16151e+07
2.10456e+07
2.04915e+07
1.99482e+07
1.94183e+07
1.89052e+07
1.84109e+07
1.79365e+07
1.74823e+07
1.70479e+07
1.66327e+07
1.62359e+07
1.58563e+07
1.54929e+07
1.51447e+07
1.48107e+07
1.44901e+07
1.4182e+07
1.38855e+07
1.36e+07
1.33248e+07
1.30597e+07
1.28039e+07
1.25571e+07
1.23189e+07
1.20892e+07
1.18679e+07
1.16545e+07
1.14483e+07
1.12485e+07
1.1055e+07
1.08675e+07
1.06862e+07
1.05107e+07
1.03407e+07
1.01759e+07
1.00161e+07
9.86138e+06
9.71139e+06
9.56581e+06
9.42427e+06
9.28624e+06
9.15094e+06
9.01753e+06
8.88595e+06
8.758e+06
8.63787e+06
8.52987e+06
8.43323e+06
8.33867e+06
8.22852e+06
8.07378e+06
7.7768e+06
7.18321e+06
6.07521e+06
4.3475e+06
2.32737e+06
782521
132500
9172.45
257.774
4.86361
0.166892
0.0236666
0.0114735
0.00972574
0.00947101
0.00951083
0.00968194
0.00987717
0.00996671
0.00993845
0.00987377
0.00970725
0.009522
0.00931674
0.00917014
0.00906187
0.00893077
0.00886026
0.00879092
0.00871788
0.0086161
0.00851199
0.0084082
0.0083314
0.00820845
0.00813024
0.00802306
0.00779205
0.00729586
0.00617962
0.0037509
0.00091985
3.65042e-05
5.36675e-07
1.22041e-07
1.11318e-07
1.11225e-07
1.11225e-07
1.11225e-07
1.11225e-07
1.57186e+09
1.57186e+09
1.57186e+09
1.57186e+09
1.57186e+09
1.57186e+09
1.57186e+09
1.57186e+09
1.57186e+09
1.57186e+09
1.57186e+09
1.57186e+09
1.57186e+09
1.57186e+09
1.57186e+09
1.57184e+09
1.57148e+09
1.56901e+09
1.56069e+09
1.5425e+09
1.51157e+09
1.46656e+09
1.40769e+09
1.33652e+09
1.25555e+09
1.16781e+09
1.07635e+09
9.84015e+08
8.9319e+08
8.05755e+08
7.23065e+08
6.45997e+08
5.75032e+08
5.1033e+08
4.51816e+08
3.99247e+08
3.52271e+08
3.10475e+08
2.73416e+08
2.40646e+08
2.11733e+08
1.86265e+08
1.63861e+08
1.44172e+08
1.26886e+08
1.1172e+08
9.84239e+07
8.67787e+07
7.65915e+07
6.76951e+07
5.99455e+07
5.32193e+07
4.74105e+07
4.24325e+07
3.82077e+07
3.46692e+07
3.1753e+07
2.93931e+07
2.75152e+07
2.60327e+07
2.48443e+07
2.38379e+07
2.29539e+07
2.22274e+07
2.16151e+07
2.10456e+07
2.04915e+07
1.99482e+07
1.94183e+07
1.89052e+07
1.84109e+07
1.79365e+07
1.74823e+07
1.70479e+07
1.66327e+07
1.62359e+07
1.58563e+07
1.54929e+07
1.51447e+07
1.48107e+07
1.44901e+07
1.4182e+07
1.38855e+07
1.36e+07
1.33248e+07
1.30597e+07
1.28039e+07
1.25571e+07
1.23189e+07
1.20892e+07
1.18679e+07
1.16545e+07
1.14483e+07
1.12486e+07
1.1055e+07
1.08675e+07
1.06862e+07
1.05107e+07
1.03407e+07
1.01759e+07
1.00161e+07
9.86138e+06
9.71139e+06
9.56581e+06
9.42428e+06
9.28625e+06
9.15094e+06
9.01754e+06
8.88596e+06
8.75801e+06
8.63787e+06
8.52988e+06
8.43324e+06
8.33868e+06
8.22853e+06
8.07378e+06
7.7768e+06
7.18321e+06
6.07519e+06
4.34747e+06
2.32734e+06
782503
132495
9172.07
257.763
4.86345
0.166889
0.0236665
0.0114735
0.00972576
0.00947104
0.00951085
0.00968196
0.00987719
0.00996674
0.00993847
0.00987379
0.00970728
0.00952202
0.00931676
0.00917016
0.00906189
0.00893079
0.00886027
0.00879093
0.00871789
0.00861611
0.008512
0.00840821
0.00833141
0.00820846
0.00813025
0.00802307
0.00779206
0.00729587
0.00617964
0.00375092
0.000919863
3.65051e-05
5.36684e-07
1.22042e-07
1.11318e-07
1.11225e-07
1.11225e-07
1.11225e-07
1.11225e-07
1.57186e+09
1.57186e+09
1.57186e+09
1.57186e+09
1.57186e+09
1.57186e+09
1.57186e+09
1.57186e+09
1.57186e+09
1.57186e+09
1.57186e+09
1.57186e+09
1.57186e+09
1.57186e+09
1.57186e+09
1.57184e+09
1.57148e+09
1.56901e+09
1.56069e+09
1.5425e+09
1.51157e+09
1.46656e+09
1.40769e+09
1.33651e+09
1.25555e+09
1.16781e+09
1.07635e+09
9.84015e+08
8.9319e+08
8.05755e+08
7.23064e+08
6.45997e+08
5.75031e+08
5.1033e+08
4.51815e+08
3.99246e+08
3.52271e+08
3.10475e+08
2.73416e+08
2.40646e+08
2.11733e+08
1.86265e+08
1.6386e+08
1.44172e+08
1.26886e+08
1.1172e+08
9.84238e+07
8.67786e+07
7.65914e+07
6.76951e+07
5.99454e+07
5.32192e+07
4.74105e+07
4.24325e+07
3.82077e+07
3.46692e+07
3.17529e+07
2.9393e+07
2.75152e+07
2.60326e+07
2.48443e+07
2.38379e+07
2.29538e+07
2.22274e+07
2.16151e+07
2.10456e+07
2.04915e+07
1.99482e+07
1.94183e+07
1.89052e+07
1.84109e+07
1.79365e+07
1.74823e+07
1.70479e+07
1.66327e+07
1.62359e+07
1.58563e+07
1.54929e+07
1.51447e+07
1.48107e+07
1.44901e+07
1.4182e+07
1.38855e+07
1.36e+07
1.33248e+07
1.30597e+07
1.28039e+07
1.25571e+07
1.23189e+07
1.20892e+07
1.18679e+07
1.16545e+07
1.14483e+07
1.12486e+07
1.1055e+07
1.08675e+07
1.06862e+07
1.05107e+07
1.03407e+07
1.01759e+07
1.00161e+07
9.86139e+06
9.71139e+06
9.56582e+06
9.42428e+06
9.28625e+06
9.15095e+06
9.01754e+06
8.88596e+06
8.75801e+06
8.63788e+06
8.52988e+06
8.43325e+06
8.33869e+06
8.22854e+06
8.07379e+06
7.7768e+06
7.1832e+06
6.07517e+06
4.34744e+06
2.32732e+06
782490
132492
9171.82
257.756
4.86335
0.166887
0.0236665
0.0114735
0.00972579
0.00947106
0.00951087
0.00968199
0.00987721
0.00996676
0.0099385
0.00987381
0.0097073
0.00952204
0.00931678
0.00917018
0.00906191
0.00893081
0.00886029
0.00879095
0.00871791
0.00861613
0.00851201
0.00840822
0.00833142
0.00820847
0.00813026
0.00802308
0.00779207
0.00729589
0.00617966
0.00375094
0.000919876
3.65059e-05
5.36693e-07
1.22042e-07
1.11318e-07
1.11225e-07
1.11225e-07
1.11225e-07
1.11225e-07
1.57186e+09
1.57186e+09
1.57186e+09
1.57186e+09
1.57186e+09
1.57186e+09
1.57186e+09
1.57186e+09
1.57186e+09
1.57186e+09
1.57186e+09
1.57186e+09
1.57186e+09
1.57186e+09
1.57186e+09
1.57184e+09
1.57148e+09
1.569e+09
1.56069e+09
1.5425e+09
1.51157e+09
1.46656e+09
1.40769e+09
1.33651e+09
1.25555e+09
1.16781e+09
1.07635e+09
9.84014e+08
8.93189e+08
8.05754e+08
7.23064e+08
6.45996e+08
5.75031e+08
5.10329e+08
4.51815e+08
3.99246e+08
3.5227e+08
3.10474e+08
2.73415e+08
2.40646e+08
2.11733e+08
1.86264e+08
1.6386e+08
1.44172e+08
1.26886e+08
1.11719e+08
9.84237e+07
8.67785e+07
7.65913e+07
6.7695e+07
5.99453e+07
5.32191e+07
4.74104e+07
4.24324e+07
3.82076e+07
3.46691e+07
3.17529e+07
2.9393e+07
2.75152e+07
2.60326e+07
2.48443e+07
2.38379e+07
2.29538e+07
2.22273e+07
2.16151e+07
2.10456e+07
2.04915e+07
1.99482e+07
1.94183e+07
1.89052e+07
1.84109e+07
1.79365e+07
1.74823e+07
1.70479e+07
1.66327e+07
1.62359e+07
1.58563e+07
1.54929e+07
1.51447e+07
1.48107e+07
1.44901e+07
1.4182e+07
1.38855e+07
1.36e+07
1.33248e+07
1.30597e+07
1.28039e+07
1.25571e+07
1.23189e+07
1.20892e+07
1.18679e+07
1.16545e+07
1.14483e+07
1.12486e+07
1.1055e+07
1.08675e+07
1.06862e+07
1.05107e+07
1.03407e+07
1.01759e+07
1.00161e+07
9.86139e+06
9.7114e+06
9.56582e+06
9.42428e+06
9.28626e+06
9.15095e+06
9.01755e+06
8.88597e+06
8.75802e+06
8.63788e+06
8.52989e+06
8.43325e+06
8.33869e+06
8.22854e+06
8.07379e+06
7.77681e+06
7.1832e+06
6.07516e+06
4.34742e+06
2.3273e+06
782481
132490
9171.62
257.75
4.86329
0.166886
0.0236664
0.0114735
0.00972581
0.00947108
0.00951089
0.00968201
0.00987724
0.00996678
0.00993852
0.00987383
0.00970732
0.00952206
0.0093168
0.0091702
0.00906192
0.00893083
0.00886031
0.00879097
0.00871792
0.00861614
0.00851203
0.00840823
0.00833143
0.00820848
0.00813027
0.0080231
0.00779208
0.0072959
0.00617968
0.00375097
0.000919889
3.65068e-05
5.36701e-07
1.22042e-07
1.11318e-07
1.11225e-07
1.11225e-07
1.11225e-07
1.11225e-07
1.57184e+09
1.57184e+09
1.57184e+09
1.57184e+09
1.57184e+09
1.57184e+09
1.57184e+09
1.57184e+09
1.57184e+09
1.57184e+09
1.57184e+09
1.57184e+09
1.57184e+09
1.57184e+09
1.57184e+09
1.57183e+09
1.57146e+09
1.56899e+09
1.56067e+09
1.54248e+09
1.51155e+09
1.46654e+09
1.40767e+09
1.3365e+09
1.25554e+09
1.16779e+09
1.07634e+09
9.84003e+08
8.9318e+08
8.05746e+08
7.23057e+08
6.4599e+08
5.75026e+08
5.10325e+08
4.51812e+08
3.99243e+08
3.52268e+08
3.10473e+08
2.73414e+08
2.40645e+08
2.11732e+08
1.86264e+08
1.6386e+08
1.44172e+08
1.26885e+08
1.11719e+08
9.84235e+07