/*--------------------------------*- C++ -*----------------------------------*\
  =========                 |
  \\      /  F ield         | OpenFOAM: The Open Source CFD Toolbox
   \\    /   O peration     | Website:  https://openfoam.org
    \\  /    A nd           | Version:  13
     \\/     M anipulation  |
\*---------------------------------------------------------------------------*/
FoamFile
{
    format      ascii;
    class       volScalarField;
    location    "0.0012";
    object      rho;
}
// * * * * * * * * * * * * * * * * * * * * * * * * * * * * * * * * * * * * * //

dimensions      [1 -3 0 0 0 0 0];

internalField   nonuniform List<scalar> 
33334
(
1.14453
1.14453
1.14453
1.14453
1.14453
1.14453
1.14453
1.14453
1.14453
1.14453
1.14453
1.14453
1.14453
1.14453
1.14453
1.14452
1.14446
1.14411
1.14308
1.14102
1.13771
1.13309
1.12722
1.12023
1.11231
1.10364
1.09441
1.08477
1.07486
1.06478
1.05461
1.04441
1.03421
1.02406
1.01395
1.00392
0.993951
0.984061
0.974247
0.964509
0.954845
0.945255
0.93574
0.9263
0.91694
0.907667
0.898493
0.889435
0.880519
0.871783
0.863279
0.855081
0.847283
0.840009
0.833404
0.827633
0.82285
0.819169
0.816621
0.815115
0.814429
0.814196
0.814285
0.814831
0.815699
0.816599
0.81741
0.818118
0.818741
0.819303
0.819824
0.820316
0.820789
0.82125
0.821702
0.822149
0.822589
0.823023
0.823452
0.823874
0.824291
0.8247
0.8251
0.825492
0.825877
0.826254
0.826624
0.826988
0.827346
0.827701
0.828056
0.828409
0.828758
0.829099
0.829432
0.829759
0.830081
0.8304
0.830715
0.831026
0.831334
0.83164
0.831941
0.832235
0.832521
0.832805
0.833094
0.833395
0.833706
0.834008
0.834278
0.834493
0.834643
0.834759
0.83497
0.835659
0.837378
0.841576
0.850958
0.87023
0.906605
0.970088
1.07268
1.22446
1.4231
1.63977
1.81913
1.9258
1.96506
1.97049
1.96963
1.96757
1.96469
1.96158
1.95904
1.95711
1.95557
1.95449
1.9537
1.95293
1.95202
1.95092
1.9497
1.94843
1.94719
1.94603
1.94495
1.94395
1.94301
1.94207
1.94111
1.94001
1.9385
1.93579
1.92962
1.91344
1.86867
1.75014
1.50509
1.24246
1.15157
1.14461
1.14453
1.14453
1.14453
1.14453
1.14453
1.14453
1.14453
1.14453
1.14453
1.14453
1.14453
1.14453
1.14453
1.14453
1.14453
1.14453
1.14453
1.14453
1.14453
1.14452
1.14446
1.14411
1.14308
1.14102
1.13771
1.13309
1.12722
1.12023
1.11231
1.10364
1.09441
1.08477
1.07486
1.06478
1.05461
1.04441
1.03421
1.02405
1.01395
1.00392
0.993951
0.984061
0.974247
0.964509
0.954845
0.945255
0.93574
0.9263
0.91694
0.907667
0.898493
0.889435
0.880519
0.871783
0.86328
0.855081
0.847284
0.840009
0.833405
0.827634
0.822851
0.81917
0.816622
0.815116
0.814429
0.814199
0.814286
0.814831
0.8157
0.8166
0.817412
0.818119
0.818742
0.819304
0.819825
0.820317
0.82079
0.821251
0.821704
0.82215
0.82259
0.823025
0.823453
0.823876
0.824292
0.824701
0.825102
0.825494
0.825878
0.826255
0.826626
0.826989
0.827347
0.827702
0.828057
0.828411
0.82876
0.829101
0.829433
0.82976
0.830083
0.830402
0.830717
0.831027
0.831335
0.831641
0.831943
0.832237
0.832523
0.832806
0.833095
0.833397
0.833707
0.83401
0.834279
0.834494
0.834645
0.834761
0.834972
0.835659
0.837378
0.841573
0.850952
0.870217
0.906581
0.970047
1.07262
1.22438
1.42301
1.63969
1.81908
1.92577
1.96506
1.97049
1.96964
1.96757
1.96469
1.96158
1.95904
1.95711
1.95557
1.95449
1.9537
1.95294
1.95202
1.95092
1.9497
1.94843
1.9472
1.94603
1.94495
1.94396
1.94301
1.94208
1.94111
1.94001
1.9385
1.93579
1.92962
1.91344
1.86867
1.75014
1.50509
1.24247
1.15158
1.14461
1.14453
1.14453
1.14453
1.14453
1.14453
1.14453
1.14453
1.14453
1.14453
1.14453
1.14453
1.14453
1.14453
1.14453
1.14453
1.14453
1.14453
1.14453
1.14453
1.14452
1.14446
1.14411
1.14308
1.14102
1.13771
1.13309
1.12722
1.12023
1.11231
1.10364
1.09441
1.08477
1.07486
1.06478
1.05461
1.04441
1.03421
1.02405
1.01395
1.00392
0.993951
0.984061
0.974247
0.964509
0.954845
0.945256
0.93574
0.9263
0.91694
0.907668
0.898493
0.889435
0.88052
0.871784
0.86328
0.855081
0.847284
0.84001
0.833405
0.827634
0.822851
0.81917
0.816623
0.815117
0.81443
0.8142
0.814287
0.814832
0.815702
0.816602
0.817413
0.818121
0.818743
0.819306
0.819826
0.820319
0.820792
0.821253
0.821706
0.822152
0.822592
0.823027
0.823455
0.823878
0.824294
0.824703
0.825104
0.825496
0.82588
0.826257
0.826628
0.826991
0.827349
0.827704
0.828059
0.828413
0.828762
0.829103
0.829436
0.829762
0.830085
0.830404
0.830719
0.831029
0.831338
0.831644
0.831945
0.832239
0.832525
0.832808
0.833098
0.833399
0.833709
0.834012
0.834282
0.834497
0.834647
0.834763
0.834975
0.83566
0.837378
0.841569
0.850938
0.870186
0.906527
0.969964
1.0725
1.22424
1.42286
1.63956
1.819
1.92574
1.96506
1.97049
1.96964
1.96758
1.9647
1.96159
1.95905
1.95712
1.95557
1.9545
1.95371
1.95294
1.95203
1.95093
1.9497
1.94844
1.9472
1.94603
1.94496
1.94396
1.94301
1.94208
1.94111
1.94001
1.9385
1.93579
1.92963
1.91344
1.86867
1.75015
1.5051
1.24247
1.15158
1.14461
1.14453
1.14453
1.14453
1.14453
1.14453
1.14453
1.14453
1.14453
1.14453
1.14453
1.14453
1.14453
1.14453
1.14453
1.14453
1.14453
1.14453
1.14453
1.14453
1.14452
1.14446
1.14411
1.14308
1.14102
1.13771
1.13309
1.12722
1.12023
1.11231
1.10364
1.09441
1.08477
1.07486
1.06478
1.05461
1.04441
1.03421
1.02405
1.01395
1.00392
0.993951
0.984061
0.974247
0.964509
0.954845
0.945255
0.93574
0.9263
0.91694
0.907668
0.898493
0.889435
0.88052
0.871784
0.86328
0.855082
0.847284
0.84001
0.833406
0.827635
0.822852
0.819171
0.816623
0.815117
0.814431
0.814201
0.814288
0.814833
0.815702
0.816603
0.817414
0.818122
0.818744
0.819307
0.819828
0.82032
0.820793
0.821254
0.821707
0.822153
0.822594
0.823028
0.823456
0.823879
0.824296
0.824705
0.825105
0.825497
0.825882
0.826259
0.82663
0.826993
0.827351
0.827706
0.828061
0.828415
0.828764
0.829105
0.829437
0.829764
0.830087
0.830406
0.830721
0.831031
0.83134
0.831646
0.831947
0.832241
0.832527
0.832811
0.8331
0.833401
0.833711
0.834014
0.834284
0.834499
0.834649
0.834766
0.834977
0.835662
0.837378
0.841566
0.850928
0.870166
0.90649
0.969902
1.07241
1.22411
1.42273
1.63945
1.81893
1.92572
1.96506
1.9705
1.96965
1.96758
1.9647
1.96159
1.95905
1.95712
1.95558
1.9545
1.95371
1.95295
1.95203
1.95093
1.94971
1.94844
1.9472
1.94604
1.94496
1.94396
1.94301
1.94208
1.94111
1.94001
1.9385
1.93579
1.92963
1.91344
1.86867
1.75015
1.5051
1.24247
1.15158
1.14461
1.14453
1.14453
1.14453
1.14453
1.14453
1.14453
1.14453
1.14453
1.14453
1.14453
1.14453
1.14453
1.14453
1.14453
1.14453
1.14453
1.14453
1.14453
1.14453
1.14452
1.14446
1.14411
1.14308
1.14102
1.13771
1.13309
1.12722
1.12023
1.11231
1.10364
1.09441
1.08477
1.07486
1.06478
1.05461
1.04441
1.03421
1.02405
1.01395
1.00391
0.99395
0.984061
0.974247
0.964509
0.954845
0.945255
0.93574
0.9263
0.91694
0.907667
0.898493
0.889435
0.88052
0.871784
0.86328
0.855082
0.847284
0.84001
0.833406
0.827635
0.822851
0.81917
0.816623
0.815117
0.814431
0.814201
0.814288
0.814833
0.815703
0.816603
0.817414
0.818122
0.818745
0.819307
0.819828
0.820321
0.820794
0.821255
0.821707
0.822154
0.822594
0.823029
0.823457
0.82388
0.824296
0.824705
0.825106
0.825498
0.825883
0.82626
0.82663
0.826994
0.827352
0.827707
0.828062
0.828416
0.828765
0.829106
0.829439
0.829765
0.830088
0.830407
0.830722
0.831033
0.831341
0.831647
0.831949
0.832242
0.832529
0.832812
0.833101
0.833402
0.833713
0.834016
0.834286
0.834501
0.834651
0.834767
0.834979
0.835663
0.837378
0.841565
0.850925
0.870158
0.906474
0.969874
1.07237
1.22405
1.42266
1.63939
1.81889
1.9257
1.96506
1.9705
1.96965
1.96758
1.96471
1.96159
1.95906
1.95712
1.95558
1.9545
1.95371
1.95295
1.95203
1.95093
1.94971
1.94844
1.9472
1.94604
1.94496
1.94396
1.94301
1.94208
1.94111
1.94001
1.9385
1.93579
1.92963
1.91344
1.86867
1.75015
1.5051
1.24247
1.15158
1.14461
1.14453
1.14453
1.14453
1.14453
1.14453
1.14453
1.14453
1.14453
1.14453
1.14453
1.14453
1.14453
1.14453
1.14453
1.14453
1.14453
1.14453
1.14453
1.14453
1.14452
1.14446
1.14411
1.14308
1.14102
1.13771
1.13309
1.12722
1.12023
1.11231
1.10364
1.09441
1.08477
1.07486
1.06478
1.05461
1.04441
1.03421
1.02405
1.01395
1.00391
0.99395
0.984061
0.974247
0.964509
0.954845
0.945255
0.93574
0.9263
0.91694
0.907667
0.898493
0.889435
0.88052
0.871784
0.86328
0.855081
0.847284
0.84001
0.833405
0.827635
0.822851
0.81917
0.816623
0.815117
0.814431
0.814201
0.814288
0.814834
0.815703
0.816603
0.817414
0.818122
0.818745
0.819307
0.819828
0.820321
0.820794
0.821255
0.821708
0.822154
0.822594
0.823029
0.823457
0.82388
0.824297
0.824706
0.825106
0.825498
0.825883
0.82626
0.826631
0.826994
0.827352
0.827708
0.828063
0.828416
0.828765
0.829106
0.829439
0.829766
0.830089
0.830408
0.830723
0.831033
0.831341
0.831648
0.831949
0.832243
0.832529
0.832813
0.833102
0.833403
0.833714
0.834016
0.834286
0.834502
0.834652
0.834768
0.83498
0.835664
0.837379
0.841565
0.850924
0.870156
0.906469
0.969866
1.07235
1.22403
1.42263
1.63936
1.81888
1.9257
1.96506
1.9705
1.96965
1.96759
1.96471
1.96159
1.95906
1.95712
1.95558
1.95451
1.95371
1.95295
1.95203
1.95093
1.94971
1.94844
1.9472
1.94604
1.94496
1.94396
1.94301
1.94208
1.94111
1.94001
1.9385
1.93579
1.92963
1.91344
1.86867
1.75015
1.5051
1.24247
1.15158
1.14461
1.14453
1.14453
1.14453
1.14453
1.14453
1.14453
1.14453
1.14453
1.14453
1.14453
1.14453
1.14453
1.14453
1.14453
1.14453
1.14453
1.14453
1.14453
1.14453
1.14452
1.14446
1.14411
1.14308
1.14102
1.13771
1.13309
1.12722
1.12023
1.11231
1.10364
1.09441
1.08477
1.07486
1.06478
1.05461
1.04441
1.03421
1.02405
1.01395
1.00391
0.99395
0.984061
0.974247
0.964509
0.954845
0.945255
0.93574
0.9263
0.91694
0.907667
0.898493
0.889435
0.880519
0.871784
0.86328
0.855081
0.847284
0.840009
0.833405
0.827634
0.822851
0.81917
0.816623
0.815117
0.814431
0.814201
0.814288
0.814834
0.815703
0.816603
0.817414
0.818122
0.818745
0.819307
0.819828
0.820321
0.820794
0.821255
0.821708
0.822154
0.822594
0.823029
0.823457
0.82388
0.824297
0.824706
0.825106
0.825498
0.825883
0.82626
0.826631
0.826994
0.827352
0.827708
0.828063
0.828416
0.828765
0.829106
0.829439
0.829766
0.830089
0.830408
0.830723
0.831033
0.831342
0.831648
0.831949
0.832243
0.832529
0.832813
0.833102
0.833403
0.833714
0.834017
0.834287
0.834502
0.834652
0.834769
0.83498
0.835665
0.837379
0.841566
0.850925
0.870156
0.906469
0.969865
1.07235
1.22403
1.42263
1.63936
1.81887
1.9257
1.96506
1.9705
1.96965
1.96759
1.96471
1.96159
1.95906
1.95712
1.95558
1.95451
1.95371
1.95295
1.95203
1.95093
1.94971
1.94844
1.9472
1.94604
1.94496
1.94396
1.94301
1.94208
1.94111
1.94001
1.9385
1.93579
1.92963
1.91344
1.86867
1.75015
1.5051
1.24247
1.15158
1.14461
1.14453
1.14453
1.14453
1.14453
1.14453
1.14453
1.14453
1.14453
1.14453
1.14453
1.14453
1.14453
1.14453
1.14453
1.14453
1.14453
1.14453
1.14453
1.14453
1.14452
1.14446
1.14411
1.14308
1.14102
1.13771
1.13309
1.12722
1.12023
1.11231
1.10364
1.09441
1.08477
1.07486
1.06478
1.05461
1.04441
1.03421
1.02405
1.01395
1.00391
0.99395
0.984061
0.974247
0.964509
0.954845
0.945255
0.935739
0.9263
0.91694
0.907667
0.898493
0.889435
0.880519
0.871783
0.86328
0.855081
0.847284
0.840009
0.833405
0.827634
0.822851
0.81917
0.816622
0.815117
0.814431
0.814201
0.814288
0.814834
0.815703
0.816603
0.817414
0.818122
0.818745
0.819307
0.819828
0.820321
0.820794
0.821255
0.821708
0.822154
0.822594
0.823029
0.823457
0.82388
0.824297
0.824706
0.825106
0.825498
0.825883
0.82626
0.826631
0.826994
0.827352
0.827708
0.828063
0.828416
0.828765
0.829106
0.829439
0.829766
0.830089
0.830408
0.830723
0.831034
0.831342
0.831648
0.831949
0.832243
0.83253
0.832813
0.833102
0.833404
0.833714
0.834017
0.834287
0.834502
0.834653
0.834769
0.83498
0.835665
0.83738
0.841566
0.850925
0.870157
0.90647
0.969866
1.07235
1.22403
1.42263
1.63936
1.81887
1.9257
1.96506
1.9705
1.96965
1.96759
1.96471
1.96159
1.95906
1.95712
1.95558
1.95451
1.95371
1.95295
1.95203
1.95093
1.94971
1.94844
1.9472
1.94604
1.94496
1.94396
1.94301
1.94208
1.94111
1.94001
1.9385
1.93579
1.92963
1.91344
1.86867
1.75015
1.50511
1.24247
1.15158
1.14461
1.14453
1.14453
1.14453
1.14453
1.14453
1.14453
1.14453
1.14453
1.14453
1.14453
1.14453
1.14453
1.14453
1.14453
1.14453
1.14453
1.14453
1.14453
1.14453
1.14452
1.14446
1.14411
1.14308
1.14102
1.13771
1.13309
1.12722
1.12023
1.11231
1.10364
1.09441
1.08477
1.07486
1.06478
1.05461
1.04441
1.03421
1.02405
1.01395
1.00391
0.99395
0.984061
0.974247
0.964509
0.954845
0.945255
0.935739
0.9263
0.91694
0.907667
0.898493
0.889435
0.880519
0.871783
0.86328
0.855081
0.847284
0.840009
0.833405
0.827634
0.822851
0.81917
0.816622
0.815117
0.81443
0.814201
0.814288
0.814834
0.815703
0.816603
0.817414
0.818122
0.818745
0.819307
0.819828
0.820321
0.820794
0.821255
0.821708
0.822154
0.822594
0.823029
0.823457
0.82388
0.824297
0.824706
0.825106
0.825498
0.825883
0.82626
0.826631
0.826994
0.827352
0.827708
0.828063
0.828416
0.828765
0.829106
0.829439
0.829766
0.830089
0.830408
0.830723
0.831034
0.831342
0.831648
0.831949
0.832243
0.83253
0.832813
0.833102
0.833404
0.833714
0.834017
0.834287
0.834502
0.834653
0.834769
0.83498
0.835665
0.83738
0.841567
0.850926
0.870158
0.906472
0.969868
1.07236
1.22404
1.42263
1.63936
1.81887
1.9257
1.96506
1.9705
1.96965
1.96759
1.96471
1.96159
1.95906
1.95712
1.95558
1.95451
1.95371
1.95295
1.95203
1.95093
1.94971
1.94844
1.9472
1.94604
1.94496
1.94396
1.94301
1.94208
1.94111
1.94001
1.9385
1.93579
1.92963
1.91344
1.86867
1.75015
1.50511
1.24247
1.15158
1.14461
1.14453
1.14453
1.14453
1.14453
1.14453
1.14453
1.14453
1.14453
1.14453
1.14453
1.14453
1.14453
1.14453
1.14453
1.14453
1.14453
1.14453
1.14453
1.14453
1.14452
1.14446
1.14411
1.14308
1.14102
1.13771
1.13309
1.12722
1.12023
1.11231
1.10364
1.09441
1.08477
1.07486
1.06478
1.05461
1.04441
1.03421
1.02405
1.01395
1.00391
0.99395
0.984061
0.974247
0.964509
0.954845
0.945255
0.935739
0.9263
0.91694
0.907667
0.898493
0.889435
0.880519
0.871783
0.86328
0.855081
0.847284
0.840009
0.833405
0.827634
0.822851
0.81917
0.816622
0.815117
0.81443
0.8142
0.814288
0.814834
0.815703
0.816603
0.817414
0.818122
0.818745
0.819307
0.819828
0.820321
0.820794
0.821255
0.821708
0.822154
0.822594
0.823029
0.823457
0.82388
0.824297
0.824706
0.825106
0.825498
0.825883
0.82626
0.826631
0.826994
0.827352
0.827708
0.828063
0.828416
0.828765
0.829107
0.829439
0.829766
0.830089
0.830408
0.830723
0.831034
0.831342
0.831648
0.83195
0.832243
0.83253
0.832813
0.833102
0.833404
0.833714
0.834017
0.834287
0.834502
0.834653
0.834769
0.834981
0.835665
0.83738
0.841567
0.850927
0.870159
0.906474
0.969871
1.07236
1.22404
1.42264
1.63936
1.81888
1.9257
1.96506
1.9705
1.96965
1.96759
1.96471
1.96159
1.95906
1.95712
1.95558
1.95451
1.95371
1.95295
1.95203
1.95093
1.94971
1.94844
1.9472
1.94604
1.94496
1.94396
1.94301
1.94208
1.94111
1.94001
1.9385
1.93579
1.92963
1.91344
1.86867
1.75015
1.50511
1.24248
1.15158
1.14461
1.14453
1.14453
1.14453
1.14453
1.14453
1.14453
1.14453
1.14453
1.14453
1.14453
1.14453
1.14453
1.14453
1.14453
1.14453
1.14453
1.14453
1.14453
1.14453
1.14452
1.14446
1.14411
1.14308
1.14102
1.13771
1.13309
1.12722
1.12023
1.11231
1.10364
1.09441
1.08477
1.07486
1.06478
1.05461
1.04441
1.03421
1.02405
1.01395
1.00391
0.99395
0.98406
0.974247
0.964509
0.954845
0.945255
0.935739
0.926299
0.91694
0.907667
0.898493
0.889435
0.880519
0.871783
0.86328
0.855081
0.847283
0.840009
0.833405
0.827634
0.82285
0.819169
0.816622
0.815116
0.81443
0.8142
0.814288
0.814833
0.815703
0.816603
0.817414
0.818122
0.818745
0.819307
0.819828
0.820321
0.820794
0.821255
0.821708
0.822154
0.822594
0.823029
0.823457
0.82388
0.824297
0.824706
0.825106
0.825498
0.825883
0.826261
0.826631
0.826994
0.827352
0.827708
0.828063
0.828417
0.828765
0.829107
0.829439
0.829766
0.830089
0.830408
0.830723
0.831034
0.831342
0.831648
0.83195
0.832243
0.83253
0.832813
0.833102
0.833404
0.833714
0.834017
0.834287
0.834502
0.834653
0.834769
0.834981
0.835665
0.83738
0.841567
0.850927
0.87016
0.906476
0.969874
1.07237
1.22405
1.42264
1.63937
1.81888
1.9257
1.96506
1.9705
1.96965
1.96759
1.96471
1.96159
1.95906
1.95712
1.95558
1.95451
1.95371
1.95295
1.95203
1.95093
1.94971
1.94844
1.9472
1.94604
1.94496
1.94396
1.94301
1.94208
1.94111
1.94001
1.9385
1.93579
1.92963
1.91344
1.86867
1.75015
1.50511
1.24248
1.15158
1.14461
1.14453
1.14453
1.14453
1.14453
1.14453
1.14453
1.14453
1.14453
1.14453
1.14453
1.14453
1.14453
1.14453
1.14453
1.14453
1.14453
1.14453
1.14453
1.14453
1.14452
1.14446
1.14411
1.14308
1.14102
1.13771
1.13309
1.12722
1.12023
1.11231
1.10364
1.09441
1.08477
1.07486
1.06478
1.05461
1.04441
1.03421
1.02405
1.01395
1.00391
0.99395
0.98406
0.974247
0.964508
0.954845
0.945255
0.935739
0.926299
0.91694
0.907667
0.898493
0.889435
0.880519
0.871783
0.863279
0.855081
0.847283
0.840009
0.833405
0.827634
0.82285
0.819169
0.816622
0.815116
0.81443
0.8142
0.814287
0.814833
0.815703
0.816603
0.817414
0.818122
0.818745
0.819307
0.819828
0.820321
0.820794
0.821255
0.821708
0.822154
0.822594
0.823029
0.823457
0.82388
0.824297
0.824706
0.825106
0.825498
0.825883
0.826261
0.826631
0.826994
0.827352
0.827708
0.828063
0.828417
0.828766
0.829107
0.829439
0.829766
0.830089
0.830408
0.830723
0.831034
0.831342
0.831648
0.83195
0.832244
0.83253
0.832813
0.833102
0.833404
0.833714
0.834017
0.834287
0.834502
0.834653
0.834769
0.834981
0.835666
0.837381
0.841568
0.850928
0.870161
0.906477
0.969877
1.07237
1.22405
1.42264
1.63937
1.81888
1.9257
1.96506
1.9705
1.96965
1.96759
1.96471
1.96159
1.95906
1.95712
1.95558
1.95451
1.95371
1.95295
1.95203
1.95093
1.94971
1.94844
1.9472
1.94604
1.94496
1.94396
1.94301
1.94208
1.94111
1.94001
1.9385
1.93579
1.92963
1.91344
1.86867
1.75016
1.50511
1.24248
1.15158
1.14461
1.14453
1.14453
1.14453
1.14453
1.14453
1.14453
1.14453
1.14453
1.14453
1.14453
1.14453
1.14453
1.14453
1.14453
1.14453
1.14453
1.14453
1.14453
1.14453
1.14452
1.14446
1.14411
1.14308
1.14102
1.13771
1.13309
1.12722
1.12023
1.11231
1.10364
1.09441
1.08477
1.07486
1.06478
1.05461
1.04441
1.03421
1.02405
1.01395
1.00391
0.99395
0.98406
0.974247
0.964508
0.954845
0.945255
0.935739
0.926299
0.91694
0.907667
0.898493
0.889435
0.880519
0.871783
0.863279
0.855081
0.847283
0.840009
0.833404
0.827633
0.82285
0.819169
0.816622
0.815116
0.81443
0.8142
0.814287
0.814833
0.815703
0.816603
0.817414
0.818122
0.818745
0.819307
0.819828
0.820321
0.820794
0.821255
0.821708
0.822154
0.822594
0.823029
0.823457
0.82388
0.824297
0.824706
0.825106
0.825498
0.825883
0.826261
0.826631
0.826994
0.827352
0.827708
0.828063
0.828417
0.828766
0.829107
0.829439
0.829766
0.830089
0.830408
0.830723
0.831034
0.831342
0.831648
0.83195
0.832244
0.83253
0.832813
0.833103
0.833404
0.833714
0.834017
0.834287
0.834502
0.834653
0.834769
0.834981
0.835666
0.837381
0.841568
0.850928
0.870162
0.906478
0.969878
1.07237
1.22405
1.42265
1.63937
1.81888
1.9257
1.96506
1.9705
1.96965
1.96759
1.96471
1.96159
1.95906
1.95712
1.95558
1.95451
1.95371
1.95295
1.95203
1.95093
1.94971
1.94844
1.9472
1.94604
1.94496
1.94396
1.94301
1.94208
1.94111
1.94001
1.9385
1.93579
1.92963
1.91344
1.86867
1.75016
1.50511
1.24248
1.15158
1.14461
1.14453
1.14453
1.14453
1.14453
1.14453
1.14453
1.14453
1.14453
1.14453
1.14453
1.14453
1.14453
1.14453
1.14453
1.14453
1.14453
1.14453
1.14453
1.14453
1.14452
1.14446
1.14411
1.14308
1.14102
1.13771
1.13309
1.12722
1.12023
1.11231
1.10364
1.09441
1.08477
1.07486
1.06478
1.05461
1.04441
1.03421
1.02405
1.01395
1.00391
0.99395
0.98406
0.974247
0.964508
0.954845
0.945255
0.935739
0.926299
0.916939
0.907667
0.898493
0.889435
0.880519
0.871783
0.863279
0.855081
0.847283
0.840009
0.833404
0.827633
0.82285
0.819169
0.816621
0.815116
0.81443
0.8142
0.814287
0.814833
0.815703
0.816603
0.817414
0.818122
0.818745
0.819307
0.819828
0.820321
0.820794
0.821255
0.821708
0.822154
0.822595
0.823029
0.823458
0.82388
0.824297
0.824706
0.825106
0.825499
0.825883
0.826261
0.826631
0.826994
0.827352
0.827708
0.828063
0.828417
0.828766
0.829107
0.829439
0.829766
0.830089
0.830408
0.830723
0.831034
0.831342
0.831648
0.83195
0.832244
0.83253
0.832813
0.833103
0.833404
0.833714
0.834017
0.834287
0.834503
0.834653
0.83477
0.834981
0.835666
0.837381
0.841568
0.850929
0.870163
0.906479
0.969879
1.07237
1.22405
1.42265
1.63937
1.81888
1.9257
1.96506
1.9705
1.96965
1.96759
1.96471
1.9616
1.95906
1.95712
1.95558
1.95451
1.95371
1.95295
1.95203
1.95093
1.94971
1.94844
1.9472
1.94604
1.94496
1.94396
1.94301
1.94208
1.94111
1.94001
1.9385
1.93579
1.92963
1.91344
1.86867
1.75016
1.50512
1.24248
1.15158
1.14461
1.14453
1.14453
1.14453
1.14453
1.14453
1.14453
1.14453
1.14453
1.14453
1.14453
1.14453
1.14453
1.14453
1.14453
1.14453
1.14453
1.14453
1.14453
1.14453
1.14452
1.14446
1.14411
1.14308
1.14102
1.13771
1.13309
1.12722
1.12023
1.11231
1.10364
1.09441
1.08477
1.07486
1.06478
1.05461
1.04441
1.03421
1.02405
1.01395
1.00391
0.99395
0.98406
0.974246
0.964508
0.954844
0.945255
0.935739
0.926299
0.916939
0.907667
0.898492
0.889434
0.880519
0.871783
0.863279
0.85508
0.847283
0.840008
0.833404
0.827633
0.82285
0.819169
0.816621
0.815116
0.81443
0.8142
0.814287
0.814833
0.815703
0.816603
0.817414
0.818122
0.818745
0.819308
0.819828
0.820321
0.820794
0.821255
0.821708
0.822154
0.822595
0.823029
0.823458
0.82388
0.824297
0.824706
0.825106
0.825499
0.825883
0.826261
0.826631
0.826995
0.827352
0.827708
0.828063
0.828417
0.828766
0.829107
0.829439
0.829766
0.830089
0.830408
0.830723
0.831034
0.831342
0.831648
0.83195
0.832244
0.83253
0.832813
0.833103
0.833404
0.833715
0.834017
0.834287
0.834503
0.834653
0.83477
0.834981
0.835666
0.837381
0.841568
0.850929
0.870163
0.90648
0.96988
1.07237
1.22406
1.42265
1.63937
1.81888
1.9257
1.96506
1.9705
1.96965
1.96759
1.96471
1.9616
1.95906
1.95712
1.95558
1.95451
1.95371
1.95295
1.95203
1.95093
1.94971
1.94844
1.9472
1.94604
1.94496
1.94396
1.94301
1.94208
1.94112
1.94001
1.9385
1.93579
1.92963
1.91344
1.86868
1.75016
1.50512
1.24248
1.15158
1.14461
1.14453
1.14453
1.14453
1.14453
1.14452
1.14452
1.14452
1.14452
1.14452
1.14452
1.14452
1.14452
1.14452
1.14452
1.14452
1.14452
1.14452
1.14452
1.14452
1.14452
1.14446
1.14411
1.14308
1.14101
1.1377
1.13308
1.12721
1.12023
1.11231
1.10364
1.0944
1.08477
1.07486
1.06478
1.05461
1.0444
1.03421
1.02405
1.01395
1.00391
0.993948
0.984059
0.974245
0.964507
0.954844
0.945254
0.935738
0.926299
0.916939
0.907666
0.898492
0.889434
0.880518
0.871782
0.863279
0.85508
0.847283
0.840008
0.833404
0.827633
0.82285
0.819169
0.816621
0.815116
0.81443
0.8142
0.814287
0.814833
0.815703
0.816603
0.817414
0.818122
0.818745
0.819307
0.819828
0.820321
0.820794
0.821255
0.821708
0.822154
0.822595
0.823029
0.823458
0.82388
0.824297
0.824706
0.825106
0.825499
0.825883
0.826261
0.826631
0.826995
0.827353
0.827708
0.828063
0.828417
0.828766
0.829107
0.829439
0.829766
0.830089
0.830408
0.830723
0.831034
0.831342
0.831648
0.83195
0.832244
0.83253
0.832813
0.833103
0.833404
0.833715
0.834018
0.834288
0.834503
0.834653
0.83477
0.834981
0.835666
0.837381
0.841569
0.850929
0.870163
0.90648
0.969881
1.07237
1.22406
1.42265
1.63937
1.81888
1.9257
1.96506
1.9705
1.96965
1.96759
1.96471
1.9616
1.95906
1.95712
1.95558
1.95451
1.95371
1.95295
1.95203
1.95093
1.94971
1.94844
1.9472
1.94604
1.94496
1.94396
1.94301
1.94208
1.94112
1.94001
1.9385
1.93579
1.92963
1.91344
1.86868
1.75016
1.50512
1.24248
1.15158
1.14461
1.14453
1.14453
1.14453
1.14453
1.14446
1.14446
1.14446
1.14446
1.14446
1.14446
1.14446
1.14446
1.14446
1.14446
1.14446
1.14446
1.14446
1.14446
1.14446
1.14446
1.1444
1.14405
1.14302
1.14095
1.13764
1.13302
1.12716
1.12017
1.11225
1.10358
1.09435
1.08472
1.07481
1.06473
1.05456
1.04436
1.03417
1.02402
1.01392
1.00388
0.993921
0.984034
0.974223
0.964487
0.954826
0.945238
0.935725
0.926287
0.916929
0.907657
0.898485
0.889428
0.880513
0.871778
0.863275
0.855077
0.84728
0.840006
0.833402
0.827631
0.822848
0.819168
0.81662
0.815115
0.814429
0.814199
0.814287
0.814833
0.815702
0.816603
0.817414
0.818122
0.818745
0.819307
0.819828
0.820321
0.820794
0.821255
0.821708
0.822154
0.822595
0.823029
0.823458
0.82388
0.824297
0.824706
0.825106
0.825499
0.825883
0.826261
0.826631
0.826995
0.827353
0.827708
0.828063
0.828417
0.828766
0.829107
0.82944
0.829766
0.830089
0.830408
0.830723
0.831034
0.831342
0.831648
0.83195
0.832244
0.83253
0.832814
0.833103
0.833404
0.833715
0.834018
0.834288
0.834503
0.834653
0.83477
0.834981
0.835666
0.837381
0.841569
0.850929
0.870164
0.906481
0.969882
1.07238
1.22406
1.42265
1.63938
1.81888
1.9257
1.96506
1.9705
1.96965
1.96759
1.96471
1.9616
1.95906
1.95712
1.95558
1.95451
1.95371
1.95295
1.95203
1.95093
1.94971
1.94844
1.9472
1.94604
1.94496
1.94396
1.94301
1.94208
1.94112
1.94001
1.9385
1.93579
1.92963
1.91344
1.86868
1.75016
1.50512
1.24248
1.15158
1.14461
1.14453
1.14453
1.14453
1.14453
1.14411
1.14411
1.14411
1.14411
1.14411
1.14411
1.14411
1.14411
1.14411
1.14411
1.14411
1.14411
1.14411
1.14411
1.14411
1.14411
1.14405
1.1437
1.14267
1.14061
1.1373
1.13268
1.12682
1.11984
1.11192
1.10326
1.09404
1.08441
1.07452
1.06445
1.05429
1.04411
1.03393
1.02378
1.0137
1.00368
0.993729
0.983855
0.974057
0.964334
0.954684
0.945109
0.935606
0.926179
0.916831
0.90757
0.898406
0.889358
0.880451
0.871723
0.863227
0.855035
0.847244
0.839975
0.833375
0.827608
0.822829
0.819151
0.816606
0.815103
0.814419
0.814191
0.81428
0.814827
0.815698
0.816599
0.817411
0.81812
0.818743
0.819306
0.819827
0.82032
0.820793
0.821254
0.821707
0.822154
0.822594
0.823029
0.823457
0.82388
0.824297
0.824706
0.825106
0.825499
0.825883
0.826261
0.826631
0.826995
0.827353
0.827708
0.828063
0.828417
0.828766
0.829107
0.82944
0.829766
0.830089
0.830408
0.830723
0.831034
0.831342
0.831648
0.83195
0.832244
0.83253
0.832814
0.833103
0.833404
0.833715
0.834018
0.834288
0.834503
0.834654
0.83477
0.834981
0.835666
0.837382
0.841569
0.85093
0.870164
0.906482
0.969883
1.07238
1.22406
1.42265
1.63938
1.81888
1.9257
1.96506
1.9705
1.96965
1.96759
1.96471
1.9616
1.95906
1.95712
1.95558
1.95451
1.95371
1.95295
1.95203
1.95093
1.94971
1.94844
1.9472
1.94604
1.94496
1.94396
1.94301
1.94208
1.94112
1.94001
1.9385
1.93579
1.92963
1.91344
1.86868
1.75016
1.50512
1.24248
1.15158
1.14461
1.14453
1.14453
1.14453
1.14453
1.14308
1.14308
1.14308
1.14308
1.14308
1.14308
1.14308
1.14308
1.14308
1.14308
1.14308
1.14308
1.14308
1.14308
1.14308
1.14308
1.14302
1.14267
1.14165
1.13958
1.13628
1.13167
1.12582
1.11885
1.11095
1.1023
1.0931
1.0835
1.07362
1.06358
1.05345
1.04329
1.03314
1.02303
1.01298
1.00299
0.993072
0.983231
0.973465
0.963774
0.954156
0.944611
0.93514
0.925743
0.916424
0.907191
0.898055
0.889033
0.880151
0.871448
0.862975
0.854805
0.847034
0.839784
0.833203
0.827453
0.822689
0.819025
0.816494
0.815003
0.814329
0.814115
0.814209
0.814765
0.815644
0.816552
0.81737
0.818084
0.818712
0.819279
0.819805
0.820301
0.820777
0.821241
0.821696
0.822144
0.822586
0.823022
0.823452
0.823876
0.824293
0.824703
0.825104
0.825497
0.825882
0.82626
0.82663
0.826994
0.827352
0.827708
0.828063
0.828416
0.828766
0.829107
0.829439
0.829766
0.830089
0.830408
0.830723
0.831034
0.831342
0.831648
0.83195
0.832244
0.83253
0.832814
0.833103
0.833404
0.833715
0.834018
0.834288
0.834503
0.834654
0.83477
0.834982
0.835666
0.837382
0.841569
0.85093
0.870165
0.906482
0.969883
1.07238
1.22406
1.42265
1.63938
1.81888
1.9257
1.96506
1.9705
1.96965
1.96759
1.96471
1.9616
1.95906
1.95712
1.95558
1.95451
1.95372
1.95295
1.95203
1.95093
1.94971
1.94844
1.9472
1.94604
1.94496
1.94396
1.94301
1.94208
1.94112
1.94002
1.9385
1.93579
1.92963
1.91344
1.86868
1.75016
1.50512
1.24248
1.15158
1.14461
1.14453
1.14453
1.14453
1.14453
1.14102
1.14102
1.14102
1.14102
1.14102
1.14102
1.14102
1.14102
1.14102
1.14102
1.14102
1.14102
1.14102
1.14102
1.14102
1.14101
1.14095
1.14061
1.13958
1.13753
1.13423
1.12964
1.1238
1.11685
1.10897
1.10036
1.09119
1.08162
1.07179
1.06179
1.05171
1.0416
1.0315
1.02144
1.01143
1.0015
0.991634
0.981846
0.972135
0.962498
0.952934
0.943443
0.934024
0.92468
0.915413
0.906231
0.897145
0.888172
0.879339
0.870682
0.862254
0.854128
0.8464
0.839191
0.832648
0.826935
0.822206
0.818575
0.816074
0.814614
0.813968
0.813788
0.8139
0.814481
0.815382
0.816311
0.81715
0.817883
0.818529
0.819113
0.819654
0.820165
0.820655
0.821132
0.821599
0.822058
0.82251
0.822955
0.823393
0.823824
0.824248
0.824664
0.82507
0.825468
0.825857
0.826238
0.826612
0.826979
0.827339
0.827697
0.828054
0.828409
0.82876
0.829102
0.829435
0.829763
0.830087
0.830406
0.830722
0.831033
0.831341
0.831648
0.831949
0.832243
0.83253
0.832813
0.833103
0.833404
0.833715
0.834018
0.834288
0.834503
0.834654
0.83477
0.834982
0.835667
0.837382
0.841569
0.85093
0.870165
0.906482
0.969884
1.07238
1.22406
1.42266
1.63938
1.81889
1.9257
1.96506
1.97051
1.96965
1.96759
1.96471
1.9616
1.95906
1.95712
1.95558
1.95451
1.95372
1.95295
1.95203
1.95093
1.94971
1.94844
1.9472
1.94604
1.94496
1.94396
1.94301
1.94208
1.94112
1.94002
1.9385
1.93579
1.92963
1.91345
1.86868
1.75016
1.50512
1.24248
1.15158
1.14461
1.14453
1.14453
1.14453
1.14453
1.13771
1.13771
1.13771
1.13771
1.13771
1.13771
1.13771
1.13771
1.13771
1.13771
1.13771
1.13771
1.13771
1.13771
1.13771
1.1377
1.13764
1.1373
1.13628
1.13423
1.13095
1.12637
1.12056
1.11365
1.10581
1.09724
1.08811
1.0786
1.06882
1.05888
1.04886
1.03881
1.02878
1.01879
1.00885
0.998991
0.989201
0.979488
0.96985
0.960287
0.950798
0.941381
0.932036
0.922765
0.913571
0.904461
0.895445
0.886542
0.877778
0.869188
0.860827
0.852765
0.845099
0.837951
0.831467
0.82581
0.821134
0.817555
0.815102
0.813691
0.81309
0.812959
0.813106
0.81373
0.814669
0.815635
0.816511
0.81728
0.817962
0.81858
0.819154
0.819697
0.820218
0.820724
0.821219
0.821705
0.822183
0.822653
0.823115
0.823568
0.824014
0.82445
0.824875
0.82529
0.825696
0.826093
0.826482
0.826862
0.827235
0.827604
0.827971
0.828336
0.828695
0.829045
0.829386
0.82972
0.83005
0.830374
0.830694
0.831009
0.831321
0.831631
0.831935
0.832232
0.83252
0.832805
0.833096
0.833398
0.83371
0.834014
0.834284
0.8345
0.834651
0.834768
0.83498
0.835666
0.837381
0.841569
0.85093
0.870165
0.906482
0.969884
1.07238
1.22406
1.42266
1.63938
1.81889
1.9257
1.96506
1.97051
1.96965
1.96759
1.96471
1.9616
1.95906
1.95712
1.95558
1.95451
1.95372
1.95295
1.95203
1.95093
1.94971
1.94844
1.9472
1.94604
1.94496
1.94396
1.94301
1.94208
1.94112
1.94002
1.9385
1.93579
1.92963
1.91345
1.86868
1.75016
1.50513
1.24248
1.15158
1.14461
1.14453
1.14453
1.14453
1.14453