/*--------------------------------*- C++ -*----------------------------------*\
  =========                 |
  \\      /  F ield         | OpenFOAM: The Open Source CFD Toolbox
   \\    /   O peration     | Website:  https://openfoam.org
    \\  /    A nd           | Version:  13
     \\/     M anipulation  |
\*---------------------------------------------------------------------------*/
FoamFile
{
    format      ascii;
    class       volScalarField;
    location    "0.0012";
    object      T;
}
// * * * * * * * * * * * * * * * * * * * * * * * * * * * * * * * * * * * * * //

dimensions      [0 0 0 1 0 0 0];

internalField   nonuniform List<scalar> 
33334
(
1224.39
1224.39
1224.39
1224.39
1224.39
1224.39
1224.39
1224.39
1224.39
1224.39
1224.39
1224.39
1224.39
1224.39
1224.39
1224.39
1224.37
1224.25
1223.89
1223.11
1221.75
1219.71
1216.9
1213.29
1208.88
1203.72
1197.85
1191.37
1184.35
1176.9
1169.08
1161
1152.71
1144.3
1135.81
1127.3
1118.8
1110.36
1101.99
1093.71
1085.55
1077.51
1069.61
1061.86
1054.25
1046.79
1039.49
1032.36
1025.39
1018.61
1012.03
1005.66
999.54
993.712
988.22
983.119
978.46
974.282
970.593
967.354
964.481
961.828
959.356
957.15
955.121
953.163
951.235
949.332
947.456
945.613
943.808
942.042
940.317
938.633
936.988
935.384
933.816
932.285
930.788
929.325
927.893
926.491
925.118
923.772
922.453
921.16
919.891
918.647
917.426
916.229
915.056
913.905
912.776
911.666
910.576
909.504
908.452
907.419
906.404
905.407
904.426
903.462
902.516
901.586
900.67
899.767
898.869
897.971
897.073
896.188
895.349
894.588
893.906
893.243
892.465
891.3
888.998
884.106
873.911
854.217
819.826
766.421
693.705
608.253
523.239
453.32
407.05
383.95
375.907
374.096
373.856
373.913
374.099
374.336
374.478
374.484
374.432
374.304
374.128
373.951
373.803
373.692
373.606
373.532
373.458
373.379
373.293
373.203
373.111
373.02
372.932
372.842
372.731
372.542
372.107
370.936
367.613
358.394
337.352
310.911
300.767
300.009
300
300
300
300
1224.39
1224.39
1224.39
1224.39
1224.39
1224.39
1224.39
1224.39
1224.39
1224.39
1224.39
1224.39
1224.39
1224.39
1224.39
1224.39
1224.37
1224.25
1223.89
1223.11
1221.75
1219.71
1216.9
1213.29
1208.88
1203.72
1197.85
1191.37
1184.35
1176.89
1169.08
1161
1152.71
1144.3
1135.81
1127.3
1118.8
1110.36
1101.98
1093.71
1085.55
1077.51
1069.61
1061.86
1054.25
1046.79
1039.49
1032.36
1025.39
1018.61
1012.03
1005.66
999.54
993.711
988.219
983.118
978.459
974.281
970.591
967.353
964.479
961.827
959.354
957.149
955.12
953.161
951.234
949.33
947.454
945.612
943.806
942.041
940.315
938.631
936.987
935.382
933.815
932.284
930.787
929.323
927.891
926.49
925.116
923.771
922.451
921.158
919.89
918.645
917.424
916.227
915.054
913.904
912.775
911.665
910.574
909.503
908.451
907.418
906.403
905.405
904.425
903.461
902.514
901.584
900.669
899.766
898.868
897.97
897.072
896.187
895.347
894.587
893.905
893.241
892.464
891.299
889
884.11
873.923
854.239
819.859
766.464
693.752
608.295
523.27
453.339
407.06
383.953
375.908
374.095
373.855
373.912
374.098
374.336
374.477
374.483
374.431
374.303
374.128
373.95
373.802
373.691
373.606
373.531
373.458
373.378
373.292
373.202
373.11
373.02
372.932
372.842
372.731
372.542
372.107
370.936
367.613
358.393
337.352
310.911
300.767
300.009
300
300
300
300
1224.39
1224.39
1224.39
1224.39
1224.39
1224.39
1224.39
1224.39
1224.39
1224.39
1224.39
1224.39
1224.39
1224.39
1224.39
1224.39
1224.37
1224.25
1223.89
1223.11
1221.75
1219.71
1216.9
1213.29
1208.88
1203.72
1197.85
1191.37
1184.35
1176.89
1169.08
1161
1152.71
1144.3
1135.81
1127.3
1118.8
1110.36
1101.98
1093.71
1085.55
1077.51
1069.61
1061.86
1054.25
1046.79
1039.49
1032.36
1025.39
1018.61
1012.02
1005.66
999.539
993.71
988.218
983.117
978.458
974.28
970.59
967.351
964.478
961.826
959.353
957.147
955.118
953.16
951.232
949.329
947.452
945.61
943.804
942.039
940.313
938.629
936.985
935.38
933.813
932.281
930.785
929.321
927.889
926.487
925.114
923.768
922.449
921.156
919.887
918.643
917.422
916.225
915.052
913.901
912.772
911.663
910.572
909.5
908.448
907.415
906.4
905.403
904.422
903.459
902.512
901.582
900.667
899.763
898.865
897.968
897.069
896.184
895.345
894.584
893.902
893.238
892.461
891.297
889
884.116
873.936
854.265
819.903
766.525
693.823
608.366
523.328
453.377
407.078
383.959
375.908
374.094
373.854
373.911
374.097
374.334
374.476
374.482
374.43
374.302
374.127
373.949
373.801
373.69
373.605
373.531
373.457
373.378
373.292
373.201
373.11
373.019
372.931
372.841
372.731
372.541
372.106
370.936
367.613
358.394
337.352
310.911
300.767
300.009
300
300
300
300
1224.39
1224.39
1224.39
1224.39
1224.39
1224.39
1224.39
1224.39
1224.39
1224.39
1224.39
1224.39
1224.39
1224.39
1224.39
1224.39
1224.37
1224.25
1223.89
1223.11
1221.75
1219.71
1216.9
1213.29
1208.88
1203.72
1197.85
1191.37
1184.35
1176.89
1169.08
1161
1152.71
1144.3
1135.81
1127.3
1118.8
1110.36
1101.98
1093.71
1085.55
1077.51
1069.61
1061.86
1054.25
1046.79
1039.49
1032.36
1025.39
1018.61
1012.02
1005.66
999.538
993.71
988.217
983.116
978.458
974.28
970.589
967.351
964.477
961.825
959.352
957.146
955.117
953.159
951.231
949.327
947.451
945.609
943.803
942.037
940.312
938.628
936.984
935.379
933.811
932.28
930.783
929.319
927.888
926.486
925.112
923.767
922.447
921.154
919.885
918.641
917.42
916.223
915.05
913.899
912.77
911.661
910.57
909.498
908.446
907.413
906.398
905.4
904.42
903.456
902.51
901.579
900.664
899.761
898.863
897.965
897.067
896.182
895.342
894.582
893.899
893.236
892.459
891.295
889
884.119
873.945
854.285
819.936
766.573
693.882
608.426
523.378
453.41
407.094
383.964
375.909
374.094
373.853
373.91
374.096
374.334
374.475
374.482
374.429
374.302
374.126
373.949
373.801
373.69
373.604
373.53
373.456
373.377
373.291
373.201
373.109
373.019
372.931
372.841
372.731
372.541
372.106
370.936
367.613
358.394
337.352
310.911
300.767
300.009
300
300
300
300
1224.39
1224.39
1224.39
1224.39
1224.39
1224.39
1224.39
1224.39
1224.39
1224.39
1224.39
1224.39
1224.39
1224.39
1224.39
1224.39
1224.37
1224.25
1223.89
1223.11
1221.75
1219.71
1216.9
1213.29
1208.88
1203.72
1197.85
1191.37
1184.35
1176.89
1169.08
1161
1152.71
1144.3
1135.81
1127.3
1118.8
1110.36
1101.98
1093.71
1085.55
1077.51
1069.61
1061.86
1054.25
1046.79
1039.49
1032.36
1025.39
1018.61
1012.02
1005.66
999.538
993.709
988.217
983.116
978.457
974.279
970.589
967.35
964.477
961.825
959.352
957.146
955.117
953.158
951.231
949.327
947.451
945.608
943.803
942.037
940.312
938.627
936.983
935.378
933.811
932.279
930.782
929.319
927.887
926.485
925.112
923.766
922.446
921.153
919.885
918.64
917.419
916.222
915.049
913.898
912.769
911.659
910.569
909.497
908.445
907.412
906.397
905.399
904.419
903.455
902.508
901.578
900.663
899.759
898.862
897.964
897.065
896.18
895.341
894.58
893.898
893.234
892.457
891.294
888.999
884.119
873.949
854.293
819.951
766.596
693.911
608.457
523.404
453.427
407.103
383.967
375.91
374.093
373.853
373.909
374.096
374.333
374.475
374.481
374.429
374.301
374.126
373.949
373.801
373.689
373.604
373.53
373.456
373.377
373.291
373.201
373.109
373.019
372.931
372.841
372.73
372.541
372.106
370.936
367.613
358.394
337.353
310.911
300.767
300.009
300
300
300
300
1224.39
1224.39
1224.39
1224.39
1224.39
1224.39
1224.39
1224.39
1224.39
1224.39
1224.39
1224.39
1224.39
1224.39
1224.39
1224.39
1224.37
1224.25
1223.89
1223.11
1221.75
1219.71
1216.9
1213.29
1208.88
1203.72
1197.85
1191.37
1184.35
1176.89
1169.08
1161
1152.71
1144.3
1135.81
1127.3
1118.8
1110.36
1101.98
1093.71
1085.55
1077.51
1069.61
1061.86
1054.25
1046.79
1039.49
1032.36
1025.39
1018.61
1012.02
1005.66
999.538
993.709
988.217
983.116
978.457
974.279
970.589
967.35
964.476
961.824
959.352
957.146
955.117
953.158
951.231
949.327
947.451
945.608
943.803
942.037
940.311
938.627
936.983
935.378
933.81
932.279
930.782
929.318
927.887
926.485
925.111
923.765
922.446
921.153
919.884
918.64
917.419
916.222
915.048
913.898
912.769
911.659
910.568
909.497
908.445
907.412
906.396
905.399
904.418
903.454
902.508
901.577
900.662
899.759
898.861
897.963
897.065
896.18
895.34
894.579
893.897
893.233
892.456
891.293
888.999
884.119
873.95
854.295
819.955
766.602
693.92
608.466
523.413
453.434
407.107
383.969
375.91
374.093
373.853
373.909
374.096
374.333
374.475
374.481
374.429
374.301
374.126
373.949
373.801
373.689
373.604
373.53
373.456
373.377
373.291
373.201
373.109
373.019
372.931
372.841
372.73
372.541
372.106
370.936
367.613
358.394
337.353
310.912
300.768
300.009
300
300
300
300
1224.39
1224.39
1224.39
1224.39
1224.39
1224.39
1224.39
1224.39
1224.39
1224.39
1224.39
1224.39
1224.39
1224.39
1224.39
1224.39
1224.37
1224.25
1223.89
1223.11
1221.75
1219.71
1216.9
1213.29
1208.88
1203.72
1197.85
1191.37
1184.35
1176.89
1169.08
1161
1152.71
1144.3
1135.81
1127.3
1118.8
1110.36
1101.98
1093.71
1085.55
1077.51
1069.61
1061.86
1054.25
1046.79
1039.49
1032.36
1025.39
1018.61
1012.02
1005.66
999.538
993.709
988.217
983.116
978.457
974.279
970.589
967.35
964.476
961.824
959.352
957.146
955.117
953.158
951.231
949.327
947.451
945.608
943.803
942.037
940.311
938.627
936.983
935.378
933.81
932.279
930.782
929.318
927.886
926.485
925.111
923.765
922.446
921.153
919.884
918.639
917.419
916.221
915.048
913.898
912.769
911.659
910.568
909.497
908.444
907.411
906.396
905.398
904.418
903.454
902.507
901.577
900.662
899.758
898.861
897.963
897.064
896.179
895.34
894.579
893.897
893.233
892.456
891.293
888.998
884.119
873.95
854.296
819.956
766.603
693.921
608.468
523.415
453.435
407.108
383.969
375.91
374.093
373.853
373.909
374.096
374.333
374.475
374.481
374.429
374.301
374.126
373.949
373.801
373.689
373.604
373.53
373.456
373.377
373.291
373.201
373.109
373.019
372.931
372.841
372.73
372.541
372.106
370.936
367.613
358.394
337.353
310.912
300.768
300.009
300
300
300
300
1224.39
1224.39
1224.39
1224.39
1224.39
1224.39
1224.39
1224.39
1224.39
1224.39
1224.39
1224.39
1224.39
1224.39
1224.39
1224.39
1224.37
1224.25
1223.89
1223.11
1221.75
1219.71
1216.9
1213.29
1208.88
1203.72
1197.85
1191.37
1184.35
1176.89
1169.08
1161
1152.71
1144.3
1135.81
1127.3
1118.8
1110.36
1101.98
1093.71
1085.55
1077.51
1069.61
1061.86
1054.25
1046.79
1039.49
1032.36
1025.39
1018.61
1012.02
1005.66
999.538
993.709
988.217
983.116
978.457
974.279
970.589
967.35
964.476
961.824
959.352
957.146
955.117
953.158
951.231
949.327
947.451
945.608
943.803
942.037
940.311
938.627
936.983
935.378
933.81
932.279
930.782
929.318
927.886
926.485
925.111
923.765
922.446
921.153
919.884
918.639
917.419
916.221
915.048
913.898
912.769
911.659
910.568
909.497
908.444
907.411
906.396
905.398
904.418
903.454
902.507
901.577
900.662
899.758
898.861
897.963
897.064
896.179
895.34
894.579
893.896
893.233
892.456
891.293
888.998
884.119
873.95
854.295
819.956
766.603
693.921
608.468
523.415
453.436
407.108
383.97
375.91
374.093
373.853
373.909
374.096
374.333
374.475
374.481
374.429
374.301
374.126
373.949
373.801
373.689
373.604
373.53
373.456
373.377
373.291
373.201
373.109
373.019
372.931
372.841
372.73
372.541
372.106
370.936
367.613
358.394
337.353
310.912
300.768
300.009
300
300
300
300
1224.39
1224.39
1224.39
1224.39
1224.39
1224.39
1224.39
1224.39
1224.39
1224.39
1224.39
1224.39
1224.39
1224.39
1224.39
1224.39
1224.37
1224.25
1223.89
1223.11
1221.75
1219.71
1216.9
1213.29
1208.88
1203.72
1197.85
1191.37
1184.35
1176.89
1169.08
1161
1152.71
1144.3
1135.81
1127.3
1118.8
1110.36
1101.98
1093.71
1085.55
1077.51
1069.61
1061.86
1054.25
1046.79
1039.49
1032.36
1025.39
1018.61
1012.02
1005.66
999.538
993.709
988.217
983.116
978.457
974.279
970.589
967.35
964.476
961.824
959.352
957.146
955.117
953.158
951.231
949.327
947.451
945.608
943.803
942.037
940.311
938.627
936.983
935.378
933.81
932.279
930.782
929.318
927.886
926.485
925.111
923.765
922.446
921.153
919.884
918.639
917.419
916.221
915.048
913.898
912.769
911.659
910.568
909.497
908.444
907.411
906.396
905.398
904.418
903.454
902.507
901.577
900.662
899.758
898.861
897.963
897.064
896.179
895.34
894.579
893.896
893.233
892.456
891.293
888.998
884.119
873.949
854.294
819.954
766.601
693.919
608.466
523.414
453.435
407.108
383.97
375.91
374.093
373.853
373.909
374.096
374.333
374.475
374.481
374.429
374.301
374.126
373.949
373.801
373.689
373.604
373.53
373.456
373.377
373.291
373.201
373.109
373.019
372.931
372.841
372.731
372.541
372.106
370.936
367.613
358.394
337.353
310.912
300.768
300.009
300
300
300
300
1224.39
1224.39
1224.39
1224.39
1224.39
1224.39
1224.39
1224.39
1224.39
1224.39
1224.39
1224.39
1224.39
1224.39
1224.39
1224.39
1224.37
1224.25
1223.89
1223.11
1221.75
1219.71
1216.9
1213.29
1208.88
1203.72
1197.85
1191.37
1184.35
1176.89
1169.08
1161
1152.71
1144.3
1135.81
1127.3
1118.8
1110.36
1101.98
1093.71
1085.55
1077.51
1069.61
1061.86
1054.25
1046.79
1039.49
1032.36
1025.39
1018.61
1012.02
1005.66
999.538
993.709
988.217
983.115
978.457
974.279
970.589
967.35
964.476
961.824
959.352
957.146
955.117
953.158
951.231
949.327
947.451
945.608
943.803
942.037
940.311
938.627
936.983
935.378
933.81
932.279
930.782
929.318
927.886
926.485
925.111
923.765
922.446
921.153
919.884
918.639
917.419
916.221
915.048
913.898
912.769
911.659
910.568
909.497
908.444
907.411
906.396
905.398
904.418
903.454
902.507
901.577
900.662
899.758
898.861
897.963
897.064
896.179
895.34
894.579
893.896
893.233
892.456
891.293
888.998
884.118
873.948
854.293
819.952
766.599
693.917
608.464
523.413
453.435
407.108
383.97
375.91
374.093
373.853
373.909
374.096
374.333
374.475
374.481
374.429
374.301
374.126
373.949
373.801
373.689
373.604
373.53
373.456
373.377
373.291
373.201
373.109
373.019
372.931
372.841
372.731
372.541
372.106
370.936
367.613
358.394
337.354
310.912
300.768
300.009
300
300
300
300
1224.39
1224.39
1224.39
1224.39
1224.39
1224.39
1224.39
1224.39
1224.39
1224.39
1224.39
1224.39
1224.39
1224.39
1224.39
1224.39
1224.37
1224.25
1223.89
1223.11
1221.75
1219.71
1216.9
1213.29
1208.88
1203.72
1197.85
1191.37
1184.35
1176.89
1169.08
1161
1152.71
1144.3
1135.81
1127.3
1118.8
1110.36
1101.98
1093.71
1085.55
1077.51
1069.61
1061.86
1054.25
1046.79
1039.49
1032.36
1025.39
1018.61
1012.02
1005.66
999.538
993.709
988.217
983.115
978.457
974.279
970.589
967.35
964.476
961.824
959.352
957.146
955.117
953.158
951.231
949.327
947.451
945.608
943.803
942.037
940.311
938.627
936.983
935.378
933.81
932.279
930.782
929.318
927.886
926.485
925.111
923.765
922.446
921.153
919.884
918.639
917.419
916.221
915.048
913.898
912.769
911.659
910.568
909.497
908.444
907.411
906.396
905.398
904.418
903.454
902.507
901.577
900.662
899.758
898.861
897.963
897.064
896.179
895.34
894.579
893.896
893.233
892.456
891.293
888.998
884.118
873.948
854.292
819.951
766.597
693.914
608.462
523.411
453.434
407.108
383.97
375.91
374.093
373.853
373.909
374.096
374.333
374.475
374.481
374.429
374.301
374.126
373.949
373.801
373.689
373.604
373.53
373.456
373.377
373.291
373.201
373.109
373.019
372.931
372.841
372.731
372.541
372.106
370.936
367.613
358.394
337.354
310.912
300.768
300.009
300
300
300
300
1224.39
1224.39
1224.39
1224.39
1224.39
1224.39
1224.39
1224.39
1224.39
1224.39
1224.39
1224.39
1224.39
1224.39
1224.39
1224.39
1224.37
1224.25
1223.89
1223.11
1221.75
1219.71
1216.9
1213.29
1208.88
1203.72
1197.85
1191.37
1184.35
1176.89
1169.08
1161
1152.71
1144.3
1135.81
1127.3
1118.8
1110.36
1101.98
1093.71
1085.55
1077.51
1069.61
1061.86
1054.25
1046.79
1039.49
1032.36
1025.39
1018.61
1012.02
1005.66
999.538
993.709
988.217
983.115
978.457
974.279
970.589
967.35
964.476
961.824
959.351
957.146
955.117
953.158
951.231
949.327
947.451
945.608
943.803
942.037
940.311
938.627
936.983
935.378
933.81
932.279
930.782
929.318
927.886
926.485
925.111
923.765
922.446
921.153
919.884
918.639
917.419
916.221
915.048
913.898
912.769
911.659
910.568
909.497
908.444
907.411
906.396
905.398
904.418
903.454
902.507
901.577
900.662
899.758
898.861
897.963
897.064
896.179
895.34
894.579
893.896
893.233
892.456
891.293
888.998
884.118
873.948
854.292
819.95
766.595
693.912
608.46
523.41
453.433
407.108
383.97
375.91
374.093
373.853
373.909
374.096
374.333
374.475
374.481
374.429
374.301
374.126
373.949
373.801
373.689
373.604
373.53
373.456
373.377
373.291
373.201
373.109
373.019
372.931
372.841
372.731
372.541
372.106
370.936
367.614
358.394
337.354
310.912
300.768
300.009
300
300
300
300
1224.39
1224.39
1224.39
1224.39
1224.39
1224.39
1224.39
1224.39
1224.39
1224.39
1224.39
1224.39
1224.39
1224.39
1224.39
1224.39
1224.37
1224.25
1223.89
1223.11
1221.75
1219.71
1216.9
1213.29
1208.88
1203.72
1197.85
1191.37
1184.35
1176.89
1169.08
1161
1152.71
1144.3
1135.81
1127.3
1118.8
1110.36
1101.98
1093.71
1085.55
1077.51
1069.61
1061.86
1054.25
1046.79
1039.49
1032.36
1025.39
1018.61
1012.02
1005.66
999.538
993.709
988.217
983.115
978.457
974.279
970.589
967.35
964.476
961.824
959.351
957.146
955.117
953.158
951.231
949.327
947.451
945.608
943.803
942.037
940.311
938.627
936.983
935.378
933.81
932.279
930.782
929.318
927.886
926.485
925.111
923.765
922.446
921.153
919.884
918.639
917.419
916.221
915.048
913.898
912.769
911.659
910.568
909.497
908.444
907.411
906.396
905.398
904.418
903.454
902.507
901.577
900.662
899.758
898.861
897.963
897.064
896.179
895.34
894.579
893.897
893.233
892.456
891.293
888.998
884.118
873.947
854.291
819.949
766.594
693.911
608.459
523.409
453.433
407.108
383.97
375.91
374.093
373.853
373.909
374.096
374.333
374.475
374.481
374.429
374.301
374.126
373.949
373.801
373.689
373.604
373.53
373.456
373.377
373.291
373.201
373.109
373.019
372.931
372.841
372.731
372.541
372.106
370.936
367.614
358.395
337.354
310.913
300.768
300.009
300
300
300
300
1224.39
1224.39
1224.39
1224.39
1224.39
1224.39
1224.39
1224.39
1224.39
1224.39
1224.39
1224.39
1224.39
1224.39
1224.39
1224.39
1224.37
1224.25
1223.89
1223.11
1221.75
1219.71
1216.9
1213.29
1208.88
1203.72
1197.85
1191.37
1184.35
1176.89
1169.08
1161
1152.71
1144.3
1135.81
1127.3
1118.8
1110.36
1101.98
1093.71
1085.55
1077.51
1069.61
1061.86
1054.25
1046.79
1039.49
1032.36
1025.39
1018.61
1012.02
1005.66
999.538
993.709
988.216
983.115
978.457
974.279
970.588
967.35
964.476
961.824
959.351
957.146
955.117
953.158
951.231
949.327
947.451
945.608
943.803
942.037
940.311
938.627
936.983
935.378
933.81
932.279
930.782
929.318
927.886
926.485
925.111
923.765
922.446
921.153
919.884
918.639
917.419
916.221
915.048
913.898
912.769
911.659
910.568
909.497
908.444
907.411
906.396
905.398
904.418
903.454
902.507
901.577
900.662
899.758
898.861
897.963
897.064
896.179
895.34
894.579
893.897
893.233
892.456
891.293
888.998
884.118
873.947
854.291
819.948
766.593
693.91
608.458
523.408
453.433
407.107
383.97
375.91
374.093
373.853
373.909
374.096
374.333
374.475
374.481
374.429
374.301
374.126
373.949
373.801
373.689
373.604
373.53
373.456
373.377
373.291
373.201
373.109
373.019
372.931
372.841
372.731
372.541
372.106
370.936
367.614
358.395
337.354
310.913
300.768
300.009
300
300
300
300
1224.39
1224.39
1224.39
1224.39
1224.39
1224.39
1224.39
1224.39
1224.39
1224.39
1224.39
1224.39
1224.39
1224.39
1224.39
1224.39
1224.37
1224.25
1223.89
1223.11
1221.75
1219.71
1216.9
1213.29
1208.88
1203.72
1197.85
1191.37
1184.35
1176.89
1169.08
1161
1152.71
1144.3
1135.81
1127.3
1118.8
1110.36
1101.98
1093.71
1085.55
1077.51
1069.61
1061.86
1054.25
1046.79
1039.49
1032.36
1025.39
1018.61
1012.02
1005.66
999.538
993.709
988.216
983.115
978.457
974.278
970.588
967.35
964.476
961.824
959.351
957.146
955.117
953.158
951.231
949.327
947.451
945.608
943.803
942.037
940.311
938.627
936.983
935.378
933.81
932.279
930.782
929.318
927.886
926.485
925.111
923.765
922.446
921.153
919.884
918.639
917.419
916.221
915.048
913.898
912.769
911.659
910.568
909.497
908.444
907.411
906.396
905.398
904.418
903.454
902.507
901.577
900.662
899.758
898.861
897.963
897.064
896.179
895.34
894.579
893.897
893.233
892.456
891.293
888.998
884.118
873.947
854.29
819.948
766.592
693.91
608.458
523.408
453.432
407.107
383.97
375.91
374.093
373.853
373.909
374.096
374.333
374.475
374.481
374.429
374.301
374.126
373.949
373.801
373.689
373.604
373.53
373.456
373.377
373.291
373.201
373.109
373.019
372.931
372.841
372.731
372.541
372.106
370.936
367.614
358.395
337.354
310.913
300.768
300.009
300
300
300
300
1224.39
1224.39
1224.39
1224.39
1224.39
1224.39
1224.39
1224.39
1224.39
1224.39
1224.39
1224.39
1224.39
1224.39
1224.39
1224.39
1224.37
1224.25
1223.89
1223.1
1221.75
1219.71
1216.9
1213.29
1208.88
1203.71
1197.85
1191.37
1184.35
1176.89
1169.08
1160.99
1152.71
1144.3
1135.81
1127.3
1118.8
1110.36
1101.98
1093.71
1085.55
1077.51
1069.61
1061.85
1054.25
1046.79
1039.49
1032.36
1025.39
1018.61
1012.02
1005.66
999.537
993.709
988.216
983.115
978.456
974.278
970.588
967.35
964.476
961.824
959.351
957.146
955.117
953.158
951.231
949.327
947.451
945.608
943.803
942.037
940.311
938.627
936.983
935.378
933.81
932.279
930.782
929.318
927.886
926.485
925.111
923.765
922.446
921.153
919.884
918.64
917.419
916.221
915.048
913.898
912.769
911.659
910.568
909.497
908.444
907.411
906.396
905.398
904.418
903.454
902.507
901.577
900.662
899.758
898.861
897.963
897.064
896.179
895.34
894.579
893.897
893.233
892.456
891.293
888.998
884.118
873.947
854.29
819.948
766.592
693.909
608.457
523.407
453.432
407.107
383.97
375.91
374.093
373.853
373.909
374.096
374.333
374.475
374.481
374.429
374.301
374.126
373.949
373.801
373.689
373.604
373.53
373.456
373.377
373.291
373.201
373.109
373.019
372.931
372.841
372.731
372.541
372.106
370.936
367.614
358.395
337.354
310.913
300.768
300.009
300
300
300
300
1224.37
1224.37
1224.37
1224.37
1224.37
1224.37
1224.37
1224.37
1224.37
1224.37
1224.37
1224.37
1224.37
1224.37
1224.37
1224.37
1224.35
1224.23
1223.87
1223.09
1221.73
1219.69
1216.88
1213.27
1208.86
1203.7
1197.83
1191.35
1184.34
1176.88
1169.07
1160.98
1152.7
1144.29
1135.8
1127.29
1118.79
1110.35
1101.98
1093.7
1085.54
1077.51
1069.61
1061.85
1054.24
1046.79
1039.49
1032.35
1025.39
1018.61
1012.02
1005.66
999.537
993.708
988.216
983.114
978.456
974.278
970.588
967.349
964.476
961.824
959.351
957.146
955.117
953.158
951.231
949.327
947.451
945.608
943.802
942.037
940.311
938.627
936.983
935.378
933.81
932.279
930.782
929.318
927.886
926.485
925.111
923.765
922.446
921.153
919.884
918.64
917.419
916.221
915.048
913.898
912.769
911.659
910.568
909.497
908.444
907.411
906.396
905.398
904.418
903.454
902.507
901.577
900.662
899.758
898.861
897.963
897.064
896.179
895.34
894.579
893.897
893.233
892.456
891.293
888.998
884.118
873.947
854.29
819.947
766.592
693.909
608.457
523.407
453.432
407.107
383.97
375.91
374.093
373.853
373.909
374.096
374.333
374.475
374.481
374.429
374.301
374.126
373.949
373.801
373.689
373.604
373.53
373.456
373.377
373.291
373.201
373.109
373.019
372.931
372.841
372.731
372.541
372.106
370.936
367.614
358.395
337.355
310.913
300.768
300.009
300
300
300
300
1224.25
1224.25
1224.25
1224.25
1224.25
1224.25
1224.25
1224.25
1224.25
1224.25
1224.25
1224.25
1224.25
1224.25
1224.25
1224.25
1224.23
1224.12
1223.75
1222.97
1221.62
1219.57
1216.77
1213.16
1208.75
1203.59
1197.73
1191.25
1184.24
1176.79
1168.98
1160.9
1152.62
1144.21
1135.73
1127.22
1118.73
1110.29
1101.92
1093.65
1085.5
1077.46
1069.57
1061.82
1054.21
1046.76
1039.46
1032.33
1025.37
1018.59
1012.01
1005.64
999.524
993.697
988.206
983.106
978.449
974.272
970.583
967.345
964.472
961.821
959.349
957.144
955.115
953.157
951.229
949.326
947.45
945.607
943.802
942.036
940.311
938.627
936.983
935.378
933.81
932.279
930.782
929.318
927.886
926.485
925.111
923.765
922.446
921.153
919.884
918.639
917.419
916.221
915.048
913.898
912.769
911.659
910.568
909.497
908.444
907.411
906.396
905.398
904.418
903.454
902.508
901.577
900.662
899.758
898.861
897.963
897.064
896.179
895.34
894.579
893.897
893.233
892.456
891.293
888.998
884.118
873.947
854.29
819.947
766.591
693.908
608.456
523.407
453.432
407.107
383.97
375.91
374.093
373.853
373.909
374.096
374.333
374.475
374.481
374.429
374.301
374.126
373.949
373.801
373.689
373.604
373.53
373.456
373.377
373.291
373.201
373.109
373.019
372.931
372.841
372.731
372.541
372.106
370.936
367.614
358.395
337.355
310.913
300.768
300.009
300
300
300
300
1223.89
1223.89
1223.89
1223.89
1223.89
1223.89
1223.89
1223.89
1223.89
1223.89
1223.89
1223.89
1223.89
1223.89
1223.89
1223.89
1223.87
1223.75
1223.39
1222.61
1221.26
1219.22
1216.41
1212.81
1208.41
1203.26
1197.4
1190.93
1183.93
1176.49
1168.69
1160.62
1152.35
1143.96
1135.49
1126.99
1118.51
1110.08
1101.72
1093.47
1085.32
1077.3
1069.41
1061.67
1054.07
1046.63
1039.34
1032.22
1025.27
1018.5
1011.92
1005.56
999.452
993.632
988.147
983.053
978.401
974.229
970.544
967.311
964.441
961.794
959.325
957.123
955.096
953.14
951.215
949.314
947.44
945.598
943.794
942.03
940.306
938.622
936.979
935.374
933.808
932.277
930.78
929.317
927.885
926.484
925.11
923.765
922.446
921.152
919.884
918.639
917.418
916.221
915.048
913.898
912.768
911.659
910.568
909.497
908.444
907.411
906.396
905.398
904.418
903.454
902.507
901.577
900.662
899.758
898.861
897.963
897.064
896.179
895.34
894.579
893.897
893.233
892.456
891.293
888.998
884.118
873.947
854.29
819.947
766.591
693.908
608.456
523.406
453.432
407.107
383.97
375.91
374.093
373.853
373.91
374.096
374.333
374.475
374.481
374.429
374.301
374.126
373.949
373.801
373.69
373.604
373.53
373.456
373.377
373.292
373.201
373.109
373.019
372.931
372.841
372.731
372.541
372.106
370.936
367.614
358.395
337.355
310.913
300.768
300.009
300
300
300
300
1223.11
1223.11
1223.11
1223.11
1223.11
1223.11
1223.11
1223.11
1223.11
1223.11
1223.11
1223.11
1223.11
1223.11
1223.11
1223.1
1223.09
1222.97
1222.61
1221.83
1220.48
1218.45
1215.65
1212.06
1207.67
1202.53
1196.7
1190.25
1183.27
1175.84
1168.07
1160.02
1151.78
1143.4
1134.95
1126.48
1118.02
1109.61
1101.27
1093.03
1084.91
1076.9
1069.04
1061.31
1053.73
1046.31
1039.04
1031.93
1024.99
1018.23
1011.67
1005.33
999.234
993.427
987.955
982.873
978.233
974.072
970.399
967.176
964.316
961.68
959.218
957.025
955.007
953.058
951.14
949.245
947.377
945.542
943.744
941.984
940.265
938.585
936.946
935.345
933.782
932.254
930.76
929.3
927.87
926.471
925.099
923.755
922.437
921.145
919.878
918.634
917.414
916.218
915.045
913.895
912.767
911.657
910.567
909.495
908.444
907.411
906.396
905.398
904.417
903.454
902.507
901.577
900.662
899.758
898.861
897.963
897.064
896.179
895.34
894.579
893.897
893.233
892.456
891.293
888.998
884.118
873.947
854.29
819.947
766.591
693.907
608.456
523.406
453.431
407.107
383.97
375.91
374.093
373.853
373.91
374.096
374.333
374.475
374.482
374.429
374.301
374.126
373.949
373.801
373.69
373.604
373.53
373.456
373.377
373.292
373.201
373.109
373.019
372.931
372.841
372.731
372.541
372.106
370.936
367.614
358.395
337.355
310.913
300.768
300.009
300
300
300
300
1221.75
1221.75
1221.75
1221.75
1221.75
1221.75
1221.75
1221.75
1221.75
1221.75
1221.75
1221.75
1221.75
1221.75
1221.75
1221.75
1221.73
1221.62
1221.26
1220.48
1219.14
1217.12
1214.34
1210.76
1206.4
1201.29
1195.49
1189.07
1182.12
1174.74
1167
1158.99
1150.78
1142.44
1134.03
1125.58
1117.16
1108.78
1100.48
1092.27
1084.17
1076.19
1068.35
1060.65
1053.1
1045.7
1038.45
1031.37
1024.46
1017.72
1011.18
1004.86
998.784
992.996
987.544
982.481
977.859
973.716
970.06
966.855
964.01
961.389
958.944
956.766
954.761
952.826
950.921
949.039
947.184
945.361
943.574
941.826
940.117
938.448
936.818
935.227
933.673
932.153
930.668
929.215
927.792
926.4
925.035
923.696
922.384
921.097
919.835
918.596
917.38
916.187
915.018
913.871
912.746
911.639
910.551
909.482
908.432
907.4
906.387
905.391
904.411
903.449
902.503
901.573
900.659
899.756
898.859
897.961
897.063
896.178
895.339
894.578
893.896
893.232
892.456
891.293
888.998
884.118
873.946
854.289
819.946
766.59
693.907
608.455
523.406
453.431
407.107
383.97
375.91
374.093
373.853
373.91
374.096
374.333
374.475
374.482
374.429
374.301
374.126
373.949
373.801
373.69
373.604
373.53
373.456
373.377
373.292
373.201
373.109
373.019
372.931
372.841
372.731
372.541
372.106
370.936
367.614
358.395
337.355
310.913
300.768
300.009
300
300
300
300
1219.71
1219.71
1219.71
1219.71
1219.71
1219.71
1219.71
1219.71
1219.71
1219.71
1219.71
1219.71
1219.71
1219.71
1219.71
1219.71
1219.69
1219.57
1219.22
1218.45
1217.12
1215.11
1212.36
1208.82
1204.49
1199.42
1193.67
1187.3
1180.41
1173.08
1165.4
1157.44
1149.29
1141
1132.64
1124.25
1115.87
1107.53
1099.27
1091.1
1083.05
1075.11
1067.31
1059.64
1052.12
1044.76
1037.54
1030.49
1023.6
1016.9
1010.39
1004.09
998.042
992.281
986.853
981.814
977.216
973.095
969.462
966.281
963.454
960.853
958.431
956.272
954.286
952.369
950.482
948.618
946.781
944.975
943.205
941.473
939.78
938.127
936.513
934.937
933.397
931.892
930.42
928.981
927.571
926.191
924.839
923.512
922.212
920.936
919.684
918.455
917.249
916.066
914.905
913.767
912.65
911.551
910.47
909.408
908.364
907.339
906.331
905.34
904.366
903.408
902.466
901.541
900.63
899.73
898.836
897.941
897.045
896.162
895.325
894.566
893.885
893.223
892.448
891.287
888.993
884.114
873.944
854.288
819.945
766.59
693.907
608.455
523.406
453.431
407.107
383.97
375.91
374.093
373.853
373.91
374.096
374.333
374.475
374.482
374.429
374.301
374.126
373.949
373.801
373.69
373.604
373.53
373.456
373.377
373.292
373.201
373.109
373.019
372.931
372.841
372.731
372.541
372.106
370.936
367.614
358.395
337.355
310.913
300.768
300.009
300
300
300
300
1216.9
1216.9
1216.9
1216.9
1216.9
1216.9
1216.9
1216.9
1216.9
1216.9
1216.9
1216.9
1216.9
1216.9
1216.9
1216.9
1216.88
1216.77
1216.41
1215.65
1214.34
1212.36
1209.63
1206.14
1201.87
1196.86
1191.18
1184.88
1178.07
1170.82
1163.21
1155.33
1147.26
1139.04
1130.75
1122.42
1114.11
1105.84
1097.63
1089.52
1081.51
1073.63
1065.87
1058.25
1050.77
1043.45
1036.27
1029.26
1022.41
1015.74
1009.26
1003
996.978
991.247
985.849
980.838
976.267
972.173
968.567
965.412
962.607
960.026
957.636
955.496
953.531
951.636
949.771
947.929
946.113
944.328
942.578
940.867
939.194
937.561
935.966
934.409
932.888
931.401
929.947
928.526
927.134
925.771
924.435
923.126
921.841
920.581
919.345
918.131
916.94
915.772
914.626
913.502
912.398
911.312
910.244
909.194
908.163
907.15
906.153
905.173
904.209
903.262
902.33
901.414
900.511