/*--------------------------------*- C++ -*----------------------------------*\
  =========                 |
  \\      /  F ield         | OpenFOAM: The Open Source CFD Toolbox
   \\    /   O peration     | Website:  https://openfoam.org
    \\  /    A nd           | Version:  13
     \\/     M anipulation  |
\*---------------------------------------------------------------------------*/
FoamFile
{
    format      ascii;
    class       volScalarField;
    location    "0.001";
    object      CO2;
}
// * * * * * * * * * * * * * * * * * * * * * * * * * * * * * * * * * * * * * //

dimensions      [];

internalField   nonuniform List<scalar> 
33334
(
0.00751699
0.00751699
0.00751699
0.00751699
0.00751699
0.00751699
0.00751699
0.00751699
0.00751699
0.00751699
0.00751699
0.00751699
0.00751699
0.00751699
0.00751699
0.00751699
0.00751699
0.00751699
0.00751699
0.00751699
0.00751699
0.00751699
0.00751699
0.00751699
0.00751699
0.00751699
0.00751699
0.00751699
0.00751699
0.00751699
0.00751695
0.00751658
0.00751504
0.00751075
0.00750168
0.00748567
0.00746074
0.00742535
0.00737851
0.00731977
0.00724922
0.00716734
0.00707492
0.00697297
0.00686262
0.00674505
0.00662143
0.0064929
0.00636052
0.00622527
0.00608806
0.00594966
0.0058108
0.00567207
0.00553403
0.00539711
0.00526172
0.00512817
0.00499673
0.00486763
0.00474102
0.00461704
0.00449577
0.00437725
0.00426149
0.00414844
0.00403806
0.00393027
0.00382499
0.0037221
0.00362153
0.0035232
0.00342703
0.00333294
0.00324083
0.00315065
0.0030623
0.00297574
0.00289089
0.00280769
0.00272609
0.00264602
0.00256745
0.00249032
0.00241458
0.00234019
0.00226712
0.00219532
0.00212476
0.00205541
0.00198722
0.00192017
0.00185422
0.00178935
0.00172551
0.00166268
0.00160082
0.00153991
0.00147993
0.00142087
0.00136271
0.00130544
0.00124898
0.00119322
0.00113807
0.00108351
0.00102979
0.000977423
0.000927028
0.000878825
0.000831937
0.000783685
0.000729133
0.000661199
0.00057237
0.000459524
0.000330473
0.000205115
0.000105526
4.27095e-05
1.25916e-05
2.41518e-06
2.57467e-07
1.24119e-08
2.13045e-10
1.14863e-12
1.41833e-13
1.40978e-13
1.40888e-13
1.39916e-13
1.36448e-13
1.29564e-13
1.19895e-13
1.09035e-13
9.84304e-14
8.87508e-14
7.99795e-14
7.1797e-14
6.38749e-14
5.60024e-14
4.80988e-14
4.01748e-14
3.22883e-14
2.45237e-14
1.70196e-14
1.00867e-14
4.41692e-15
1.03768e-15
7.60488e-17
5.76872e-18
4.88492e-18
4.87549e-18
4.87537e-18
4.87537e-18
4.87537e-18
4.87537e-18
4.87537e-18
4.87537e-18
4.87537e-18
4.87537e-18
4.87537e-18
4.87537e-18
4.87537e-18
4.87537e-18
4.87537e-18
4.87537e-18
0.00751699
0.00751699
0.00751699
0.00751699
0.00751699
0.00751699
0.00751699
0.00751699
0.00751699
0.00751699
0.00751699
0.00751699
0.00751699
0.00751699
0.00751699
0.00751699
0.00751699
0.00751699
0.00751699
0.00751699
0.00751699
0.00751699
0.00751699
0.00751699
0.00751699
0.00751699
0.00751699
0.00751699
0.00751699
0.00751699
0.00751695
0.00751658
0.00751504
0.00751075
0.00750168
0.00748567
0.00746074
0.00742535
0.00737851
0.00731977
0.00724922
0.00716734
0.00707492
0.00697297
0.00686262
0.00674505
0.00662143
0.0064929
0.00636052
0.00622527
0.00608806
0.00594966
0.0058108
0.00567208
0.00553403
0.00539712
0.00526173
0.00512818
0.00499674
0.00486763
0.00474103
0.00461705
0.00449578
0.00437726
0.0042615
0.00414845
0.00403808
0.00393029
0.003825
0.00372212
0.00362155
0.00352322
0.00342705
0.00333296
0.00324085
0.00315067
0.00306232
0.00297576
0.00289091
0.00280771
0.00272611
0.00264605
0.00256747
0.00249034
0.0024146
0.00234022
0.00226715
0.00219535
0.00212479
0.00205544
0.00198725
0.0019202
0.00185426
0.00178938
0.00172554
0.00166271
0.00160085
0.00153994
0.00147996
0.0014209
0.00136275
0.00130548
0.00124902
0.00119326
0.0011381
0.00108355
0.00102983
0.000977461
0.000927064
0.000878861
0.000831972
0.000783724
0.000729179
0.000661257
0.000572445
0.00045961
0.000330556
0.000205181
0.000105566
4.27282e-05
1.25978e-05
2.41652e-06
2.57634e-07
1.24216e-08
2.13247e-10
1.14977e-12
1.41832e-13
1.40975e-13
1.40885e-13
1.39913e-13
1.36446e-13
1.29564e-13
1.19895e-13
1.09035e-13
9.84304e-14
8.87505e-14
7.99791e-14
7.17966e-14
6.38745e-14
5.60021e-14
4.80986e-14
4.01746e-14
3.22882e-14
2.45235e-14
1.70195e-14
1.00867e-14
4.41692e-15
1.03769e-15
7.60505e-17
5.76875e-18
4.88492e-18
4.87549e-18
4.87537e-18
4.87537e-18
4.87537e-18
4.87537e-18
4.87537e-18
4.87537e-18
4.87537e-18
4.87537e-18
4.87537e-18
4.87537e-18
4.87537e-18
4.87537e-18
4.87537e-18
4.87537e-18
0.00751699
0.00751699
0.00751699
0.00751699
0.00751699
0.00751699
0.00751699
0.00751699
0.00751699
0.00751699
0.00751699
0.00751699
0.00751699
0.00751699
0.00751699
0.00751699
0.00751699
0.00751699
0.00751699
0.00751699
0.00751699
0.00751699
0.00751699
0.00751699
0.00751699
0.00751699
0.00751699
0.00751699
0.00751699
0.00751699
0.00751695
0.00751658
0.00751504
0.00751075
0.00750168
0.00748567
0.00746074
0.00742535
0.00737851
0.00731977
0.00724922
0.00716734
0.00707492
0.00697297
0.00686262
0.00674505
0.00662143
0.0064929
0.00636052
0.00622527
0.00608806
0.00594966
0.0058108
0.00567208
0.00553403
0.00539712
0.00526173
0.00512818
0.00499674
0.00486764
0.00474103
0.00461706
0.00449579
0.00437727
0.00426151
0.00414846
0.00403809
0.0039303
0.00382501
0.00372213
0.00362156
0.00352324
0.00342707
0.00333297
0.00324087
0.00315068
0.00306234
0.00297578
0.00289093
0.00280773
0.00272613
0.00264607
0.0025675
0.00249037
0.00241463
0.00234025
0.00226718
0.00219538
0.00212482
0.00205547
0.00198728
0.00192024
0.00185429
0.00178941
0.00172557
0.00166274
0.00160089
0.00153998
0.00148
0.00142094
0.00136279
0.00130552
0.00124906
0.0011933
0.00113815
0.00108359
0.00102987
0.000977504
0.000927107
0.000878902
0.000832014
0.00078377
0.000729235
0.00066133
0.00057254
0.000459723
0.000330672
0.000205276
0.000105629
4.27589e-05
1.26085e-05
2.41891e-06
2.57927e-07
1.24379e-08
2.13569e-10
1.15153e-12
1.41828e-13
1.4097e-13
1.4088e-13
1.39908e-13
1.36442e-13
1.29561e-13
1.19893e-13
1.09033e-13
9.84289e-14
8.87489e-14
7.99776e-14
7.17952e-14
6.38732e-14
5.6001e-14
4.80977e-14
4.0174e-14
3.22877e-14
2.45232e-14
1.70194e-14
1.00866e-14
4.41693e-15
1.0377e-15
7.60524e-17
5.76879e-18
4.88492e-18
4.87549e-18
4.87537e-18
4.87537e-18
4.87537e-18
4.87537e-18
4.87537e-18
4.87537e-18
4.87537e-18
4.87537e-18
4.87537e-18
4.87537e-18
4.87537e-18
4.87537e-18
4.87537e-18
4.87537e-18
0.00751699
0.00751699
0.00751699
0.00751699
0.00751699
0.00751699
0.00751699
0.00751699
0.00751699
0.00751699
0.00751699
0.00751699
0.00751699
0.00751699
0.00751699
0.00751699
0.00751699
0.00751699
0.00751699
0.00751699
0.00751699
0.00751699
0.00751699
0.00751699
0.00751699
0.00751699
0.00751699
0.00751699
0.00751699
0.00751699
0.00751695
0.00751658
0.00751504
0.00751075
0.00750168
0.00748567
0.00746073
0.00742535
0.00737851
0.00731977
0.00724922
0.00716734
0.00707492
0.00697297
0.00686262
0.00674505
0.00662143
0.0064929
0.00636052
0.00622527
0.00608806
0.00594966
0.0058108
0.00567208
0.00553403
0.00539712
0.00526173
0.00512818
0.00499674
0.00486764
0.00474103
0.00461706
0.00449579
0.00437727
0.00426151
0.00414846
0.00403809
0.0039303
0.00382501
0.00372213
0.00362156
0.00352324
0.00342707
0.00333298
0.00324087
0.00315069
0.00306235
0.00297579
0.00289094
0.00280774
0.00272614
0.00264608
0.00256751
0.00249038
0.00241464
0.00234026
0.00226719
0.00219539
0.00212484
0.00205548
0.0019873
0.00192025
0.0018543
0.00178943
0.00172559
0.00166276
0.00160091
0.00154
0.00148002
0.00142096
0.00136281
0.00130554
0.00124908
0.00119333
0.00113817
0.00108361
0.00102989
0.000977528
0.00092713
0.000878924
0.000832036
0.000783795
0.000729267
0.000661374
0.000572599
0.000459796
0.00033075
0.000205344
0.000105675
4.2783e-05
1.26173e-05
2.42095e-06
2.58183e-07
1.24523e-08
2.13854e-10
1.15306e-12
1.41824e-13
1.40964e-13
1.40874e-13
1.39903e-13
1.36438e-13
1.29558e-13
1.1989e-13
1.09031e-13
9.8427e-14
8.87473e-14
7.99761e-14
7.17939e-14
6.38722e-14
5.60002e-14
4.80971e-14
4.01735e-14
3.22875e-14
2.45231e-14
1.70193e-14
1.00866e-14
4.41695e-15
1.03771e-15
7.60544e-17
5.76882e-18
4.88492e-18
4.87549e-18
4.87537e-18
4.87537e-18
4.87537e-18
4.87537e-18
4.87537e-18
4.87537e-18
4.87537e-18
4.87537e-18
4.87537e-18
4.87537e-18
4.87537e-18
4.87537e-18
4.87537e-18
4.87537e-18
0.00751699
0.00751699
0.00751699
0.00751699
0.00751699
0.00751699
0.00751699
0.00751699
0.00751699
0.00751699
0.00751699
0.00751699
0.00751699
0.00751699
0.00751699
0.00751699
0.00751699
0.00751699
0.00751699
0.00751699
0.00751699
0.00751699
0.00751699
0.00751699
0.00751699
0.00751699
0.00751699
0.00751699
0.00751699
0.00751699
0.00751695
0.00751658
0.00751504
0.00751075
0.00750168
0.00748567
0.00746073
0.00742535
0.00737851
0.00731977
0.00724922
0.00716734
0.00707492
0.00697297
0.00686262
0.00674505
0.00662143
0.0064929
0.00636052
0.00622527
0.00608806
0.00594966
0.0058108
0.00567208
0.00553403
0.00539712
0.00526173
0.00512818
0.00499674
0.00486764
0.00474103
0.00461706
0.00449579
0.00437727
0.00426151
0.00414846
0.00403809
0.0039303
0.00382502
0.00372213
0.00362157
0.00352324
0.00342707
0.00333298
0.00324088
0.00315069
0.00306235
0.00297579
0.00289094
0.00280774
0.00272614
0.00264608
0.00256751
0.00249038
0.00241464
0.00234026
0.00226719
0.0021954
0.00212484
0.00205549
0.0019873
0.00192025
0.00185431
0.00178943
0.0017256
0.00166277
0.00160091
0.00154
0.00148003
0.00142097
0.00136281
0.00130554
0.00124909
0.00119333
0.00113818
0.00108362
0.0010299
0.000977536
0.000927137
0.000878931
0.000832043
0.000783803
0.000729277
0.000661389
0.000572621
0.000459825
0.000330782
0.000205373
0.000105696
4.2794e-05
1.26215e-05
2.42197e-06
2.58319e-07
1.24603e-08
2.14019e-10
1.15398e-12
1.41823e-13
1.40962e-13
1.40872e-13
1.39901e-13
1.36436e-13
1.29556e-13
1.19889e-13
1.0903e-13
9.8426e-14
8.87465e-14
7.99756e-14
7.17935e-14
6.38719e-14
5.6e-14
4.8097e-14
4.01735e-14
3.22874e-14
2.45231e-14
1.70194e-14
1.00867e-14
4.41699e-15
1.03773e-15
7.60563e-17
5.76885e-18
4.88492e-18
4.87549e-18
4.87537e-18
4.87537e-18
4.87537e-18
4.87537e-18
4.87537e-18
4.87537e-18
4.87537e-18
4.87537e-18
4.87537e-18
4.87537e-18
4.87537e-18
4.87537e-18
4.87537e-18
4.87537e-18
0.00751699
0.00751699
0.00751699
0.00751699
0.00751699
0.00751699
0.00751699
0.00751699
0.00751699
0.00751699
0.00751699
0.00751699
0.00751699
0.00751699
0.00751699
0.00751699
0.00751699
0.00751699
0.00751699
0.00751699
0.00751699
0.00751699
0.00751699
0.00751699
0.00751699
0.00751699
0.00751699
0.00751699
0.00751699
0.00751699
0.00751695
0.00751658
0.00751504
0.00751075
0.00750168
0.00748567
0.00746073
0.00742535
0.00737851
0.00731977
0.00724922
0.00716733
0.00707492
0.00697297
0.00686262
0.00674505
0.00662143
0.00649289
0.00636051
0.00622527
0.00608805
0.00594966
0.0058108
0.00567208
0.00553403
0.00539712
0.00526173
0.00512818
0.00499674
0.00486764
0.00474103
0.00461706
0.00449579
0.00437727
0.00426151
0.00414846
0.00403809
0.0039303
0.00382501
0.00372213
0.00362156
0.00352324
0.00342707
0.00333298
0.00324088
0.00315069
0.00306235
0.00297579
0.00289094
0.00280774
0.00272614
0.00264608
0.00256751
0.00249038
0.00241464
0.00234026
0.00226719
0.0021954
0.00212484
0.00205549
0.0019873
0.00192025
0.00185431
0.00178943
0.0017256
0.00166277
0.00160091
0.00154001
0.00148003
0.00142097
0.00136282
0.00130555
0.00124909
0.00119333
0.00113818
0.00108362
0.0010299
0.000977537
0.000927138
0.000878932
0.000832044
0.000783804
0.000729279
0.000661392
0.000572625
0.000459831
0.000330789
0.00020538
0.000105701
4.27968e-05
1.26226e-05
2.42228e-06
2.58365e-07
1.24632e-08
2.14085e-10
1.15438e-12
1.41823e-13
1.40961e-13
1.40871e-13
1.399e-13
1.36435e-13
1.29555e-13
1.19889e-13
1.0903e-13
9.84258e-14
8.87464e-14
7.99755e-14
7.17934e-14
6.38719e-14
5.6e-14
4.8097e-14
4.01735e-14
3.22875e-14
2.45232e-14
1.70194e-14
1.00868e-14
4.41703e-15
1.03775e-15
7.60581e-17
5.76888e-18
4.88492e-18
4.87549e-18
4.87537e-18
4.87537e-18
4.87537e-18
4.87537e-18
4.87537e-18
4.87537e-18
4.87537e-18
4.87537e-18
4.87537e-18
4.87537e-18
4.87537e-18
4.87537e-18
4.87537e-18
4.87537e-18
0.00751699
0.00751699
0.00751699
0.00751699
0.00751699
0.00751699
0.00751699
0.00751699
0.00751699
0.00751699
0.00751699
0.00751699
0.00751699
0.00751699
0.00751699
0.00751699
0.00751699
0.00751699
0.00751699
0.00751699
0.00751699
0.00751699
0.00751699
0.00751699
0.00751699
0.00751699
0.00751699
0.00751699
0.00751699
0.00751699
0.00751695
0.00751658
0.00751504
0.00751075
0.00750168
0.00748567
0.00746073
0.00742535
0.0073785
0.00731977
0.00724922
0.00716733
0.00707491
0.00697297
0.00686262
0.00674504
0.00662143
0.00649289
0.00636051
0.00622527
0.00608805
0.00594966
0.0058108
0.00567208
0.00553403
0.00539712
0.00526172
0.00512818
0.00499674
0.00486764
0.00474103
0.00461705
0.00449579
0.00437727
0.0042615
0.00414846
0.00403809
0.0039303
0.00382501
0.00372213
0.00362156
0.00352324
0.00342707
0.00333298
0.00324087
0.00315069
0.00306235
0.00297579
0.00289094
0.00280774
0.00272614
0.00264608
0.00256751
0.00249038
0.00241464
0.00234026
0.00226719
0.0021954
0.00212484
0.00205549
0.0019873
0.00192025
0.00185431
0.00178943
0.0017256
0.00166277
0.00160091
0.00154001
0.00148003
0.00142097
0.00136282
0.00130555
0.00124909
0.00119333
0.00113818
0.00108362
0.0010299
0.000977537
0.000927138
0.000878932
0.000832044
0.000783803
0.000729278
0.000661391
0.000572625
0.000459831
0.000330789
0.00020538
0.000105701
4.2797e-05
1.26228e-05
2.42233e-06
2.58374e-07
1.2464e-08
2.14105e-10
1.15452e-12
1.41823e-13
1.40961e-13
1.40871e-13
1.399e-13
1.36435e-13
1.29555e-13
1.19889e-13
1.0903e-13
9.84259e-14
8.87465e-14
7.99756e-14
7.17935e-14
6.38719e-14
5.60001e-14
4.80971e-14
4.01736e-14
3.22876e-14
2.45233e-14
1.70195e-14
1.00868e-14
4.41707e-15
1.03776e-15
7.60598e-17
5.76891e-18
4.88492e-18
4.87549e-18
4.87537e-18
4.87537e-18
4.87537e-18
4.87537e-18
4.87537e-18
4.87537e-18
4.87537e-18
4.87537e-18
4.87537e-18
4.87537e-18
4.87537e-18
4.87537e-18
4.87537e-18
4.87537e-18
0.00751699
0.00751699
0.00751699
0.00751699
0.00751699
0.00751699
0.00751699
0.00751699
0.00751699
0.00751699
0.00751699
0.00751699
0.00751699
0.00751699
0.00751699
0.00751699
0.00751699
0.00751699
0.00751699
0.00751699
0.00751699
0.00751699
0.00751699
0.00751699
0.00751699
0.00751699
0.00751699
0.00751699
0.00751699
0.00751699
0.00751695
0.00751658
0.00751504
0.00751075
0.00750168
0.00748567
0.00746073
0.00742535
0.0073785
0.00731977
0.00724922
0.00716733
0.00707491
0.00697297
0.00686262
0.00674504
0.00662142
0.00649289
0.00636051
0.00622527
0.00608805
0.00594966
0.00581079
0.00567207
0.00553403
0.00539712
0.00526172
0.00512817
0.00499674
0.00486763
0.00474103
0.00461705
0.00449578
0.00437727
0.0042615
0.00414846
0.00403808
0.0039303
0.00382501
0.00372213
0.00362156
0.00352324
0.00342707
0.00333298
0.00324087
0.00315069
0.00306235
0.00297579
0.00289094
0.00280774
0.00272614
0.00264608
0.00256751
0.00249038
0.00241464
0.00234026
0.00226719
0.0021954
0.00212484
0.00205549
0.0019873
0.00192025
0.00185431
0.00178943
0.0017256
0.00166277
0.00160091
0.00154001
0.00148003
0.00142097
0.00136282
0.00130554
0.00124909
0.00119333
0.00113818
0.00108362
0.0010299
0.000977536
0.000927137
0.000878931
0.000832043
0.000783802
0.000729277
0.00066139
0.000572623
0.000459829
0.000330787
0.000205378
0.0001057
4.27966e-05
1.26227e-05
2.42232e-06
2.58375e-07
1.24641e-08
2.1411e-10
1.15456e-12
1.41823e-13
1.40961e-13
1.40871e-13
1.39901e-13
1.36436e-13
1.29556e-13
1.19889e-13
1.0903e-13
9.84262e-14
8.87467e-14
7.99757e-14
7.17937e-14
6.38721e-14
5.60002e-14
4.80972e-14
4.01737e-14
3.22877e-14
2.45234e-14
1.70196e-14
1.00869e-14
4.41711e-15
1.03777e-15
7.60614e-17
5.76894e-18
4.88492e-18
4.87549e-18
4.87537e-18
4.87537e-18
4.87537e-18
4.87537e-18
4.87537e-18
4.87537e-18
4.87537e-18
4.87537e-18
4.87537e-18
4.87537e-18
4.87537e-18
4.87537e-18
4.87537e-18
4.87537e-18
0.00751699
0.00751699
0.00751699
0.00751699
0.00751699
0.00751699
0.00751699
0.00751699
0.00751699
0.00751699
0.00751699
0.00751699
0.00751699
0.00751699
0.00751699
0.00751699
0.00751699
0.00751699
0.00751699
0.00751699
0.00751699
0.00751699
0.00751699
0.00751699
0.00751699
0.00751699
0.00751699
0.00751699
0.00751699
0.00751699
0.00751695
0.00751658
0.00751504
0.00751075
0.00750168
0.00748567
0.00746073
0.00742535
0.0073785
0.00731977
0.00724922
0.00716733
0.00707491
0.00697296
0.00686262
0.00674504
0.00662142
0.00649289
0.00636051
0.00622527
0.00608805
0.00594966
0.00581079
0.00567207
0.00553403
0.00539711
0.00526172
0.00512817
0.00499674
0.00486763
0.00474103
0.00461705
0.00449578
0.00437727
0.0042615
0.00414846
0.00403808
0.0039303
0.00382501
0.00372213
0.00362156
0.00352324
0.00342707
0.00333297
0.00324087
0.00315069
0.00306235
0.00297579
0.00289094
0.00280774
0.00272614
0.00264608
0.00256751
0.00249038
0.00241464
0.00234026
0.00226719
0.0021954
0.00212484
0.00205549
0.0019873
0.00192025
0.00185431
0.00178943
0.0017256
0.00166277
0.00160091
0.00154
0.00148003
0.00142097
0.00136282
0.00130554
0.00124909
0.00119333
0.00113818
0.00108362
0.0010299
0.000977535
0.000927136
0.00087893
0.000832042
0.000783801
0.000729275
0.000661387
0.00057262
0.000459825
0.000330783
0.000205375
0.000105698
4.27957e-05
1.26224e-05
2.42227e-06
2.58372e-07
1.24641e-08
2.14111e-10
1.15457e-12
1.41824e-13
1.40962e-13
1.40872e-13
1.39901e-13
1.36436e-13
1.29556e-13
1.19889e-13
1.09031e-13
9.84265e-14
8.8747e-14
7.9976e-14
7.17939e-14
6.38722e-14
5.60003e-14
4.80973e-14
4.01738e-14
3.22878e-14
2.45234e-14
1.70196e-14
1.00869e-14
4.41714e-15
1.03779e-15
7.6063e-17
5.76897e-18
4.88492e-18
4.87549e-18
4.87537e-18
4.87537e-18
4.87537e-18
4.87537e-18
4.87537e-18
4.87537e-18
4.87537e-18
4.87537e-18
4.87537e-18
4.87537e-18
4.87537e-18
4.87537e-18
4.87537e-18
4.87537e-18
0.00751699
0.00751699
0.00751699
0.00751699
0.00751699
0.00751699
0.00751699
0.00751699
0.00751699
0.00751699
0.00751699
0.00751699
0.00751699
0.00751699
0.00751699
0.00751699
0.00751699
0.00751699
0.00751699
0.00751699
0.00751699
0.00751699
0.00751699
0.00751699
0.00751699
0.00751699
0.00751699
0.00751699
0.00751699
0.00751699
0.00751695
0.00751658
0.00751504
0.00751075
0.00750168
0.00748567
0.00746073
0.00742535
0.0073785
0.00731977
0.00724922
0.00716733
0.00707491
0.00697296
0.00686261
0.00674504
0.00662142
0.00649289
0.00636051
0.00622527
0.00608805
0.00594966
0.00581079
0.00567207
0.00553403
0.00539711
0.00526172
0.00512817
0.00499674
0.00486763
0.00474103
0.00461705
0.00449578
0.00437727
0.0042615
0.00414846
0.00403808
0.0039303
0.00382501
0.00372213
0.00362156
0.00352324
0.00342707
0.00333297
0.00324087
0.00315069
0.00306235
0.00297579
0.00289094
0.00280774
0.00272614
0.00264608
0.00256751
0.00249038
0.00241464
0.00234026
0.00226719
0.00219539
0.00212484
0.00205549
0.0019873
0.00192025
0.00185431
0.00178943
0.00172559
0.00166277
0.00160091
0.00154
0.00148003
0.00142097
0.00136281
0.00130554
0.00124909
0.00119333
0.00113818
0.00108362
0.0010299
0.000977535
0.000927136
0.000878929
0.000832041
0.0007838
0.000729274
0.000661385
0.000572616
0.00045982
0.000330778
0.000205371
0.000105695
4.27945e-05
1.2622e-05
2.4222e-06
2.58364e-07
1.24638e-08
2.14109e-10
1.15458e-12
1.41824e-13
1.40962e-13
1.40872e-13
1.39902e-13
1.36437e-13
1.29557e-13
1.1989e-13
1.09031e-13
9.84268e-14
8.87472e-14
7.99762e-14
7.17941e-14
6.38724e-14
5.60005e-14
4.80974e-14
4.01739e-14
3.22879e-14
2.45235e-14
1.70197e-14
1.0087e-14
4.41718e-15
1.0378e-15
7.60645e-17
5.769e-18
4.88492e-18
4.87549e-18
4.87537e-18
4.87537e-18
4.87537e-18
4.87537e-18
4.87537e-18
4.87537e-18
4.87537e-18
4.87537e-18
4.87537e-18
4.87537e-18
4.87537e-18
4.87537e-18
4.87537e-18
4.87537e-18
0.00751699
0.00751699
0.00751699
0.00751699
0.00751699
0.00751699
0.00751699
0.00751699
0.00751699
0.00751699
0.00751699
0.00751699
0.00751699
0.00751699
0.00751699
0.00751699
0.00751699
0.00751699
0.00751699
0.00751699
0.00751699
0.00751699
0.00751699
0.00751699
0.00751699
0.00751699
0.00751699
0.00751699
0.00751699
0.00751699
0.00751695
0.00751658
0.00751504
0.00751075
0.00750168
0.00748567
0.00746073
0.00742535
0.0073785
0.00731977
0.00724922
0.00716733
0.00707491
0.00697296
0.00686261
0.00674504
0.00662142
0.00649289
0.00636051
0.00622527
0.00608805
0.00594966
0.00581079
0.00567207
0.00553403
0.00539711
0.00526172
0.00512817
0.00499674
0.00486763
0.00474103
0.00461705
0.00449578
0.00437727
0.0042615
0.00414846
0.00403808
0.0039303
0.00382501
0.00372213
0.00362156
0.00352324
0.00342707
0.00333297
0.00324087
0.00315069
0.00306235
0.00297579
0.00289094
0.00280774
0.00272614
0.00264608
0.00256751
0.00249038
0.00241464
0.00234026
0.00226719
0.00219539
0.00212484
0.00205549
0.0019873
0.00192025
0.00185431
0.00178943
0.00172559
0.00166276
0.00160091
0.00154
0.00148003
0.00142097
0.00136281
0.00130554
0.00124909
0.00119333
0.00113817
0.00108362
0.0010299
0.000977534
0.000927135
0.000878929
0.00083204
0.000783799
0.000729273
0.000661383
0.000572614
0.000459817
0.000330775
0.000205368
0.000105693
4.27935e-05
1.26217e-05
2.42213e-06
2.58357e-07
1.24634e-08
2.14104e-10
1.15456e-12
1.41825e-13
1.40963e-13
1.40873e-13
1.39902e-13
1.36437e-13
1.29557e-13
1.1989e-13
1.09031e-13
9.84272e-14
8.87475e-14
7.99764e-14
7.17943e-14
6.38726e-14
5.60006e-14
4.80976e-14
4.0174e-14
3.2288e-14
2.45236e-14
1.70198e-14
1.0087e-14
4.41721e-15
1.03781e-15
7.6066e-17
5.76902e-18
4.88492e-18
4.87549e-18
4.87537e-18
4.87537e-18
4.87537e-18
4.87537e-18
4.87537e-18
4.87537e-18
4.87537e-18
4.87537e-18
4.87537e-18
4.87537e-18
4.87537e-18
4.87537e-18
4.87537e-18
4.87537e-18
0.00751699
0.00751699
0.00751699
0.00751699
0.00751699
0.00751699
0.00751699
0.00751699
0.00751699
0.00751699
0.00751699
0.00751699
0.00751699
0.00751699
0.00751699
0.00751699
0.00751699
0.00751699
0.00751699
0.00751699
0.00751699
0.00751699
0.00751699
0.00751699
0.00751699
0.00751699
0.00751699
0.00751699
0.00751699
0.00751699
0.00751695
0.00751658
0.00751504
0.00751075
0.00750168
0.00748567
0.00746073
0.00742535
0.0073785
0.00731977
0.00724922
0.00716733
0.00707491
0.00697296
0.00686261
0.00674504
0.00662142
0.00649289
0.00636051
0.00622527
0.00608805
0.00594966
0.00581079
0.00567207
0.00553402
0.00539711
0.00526172
0.00512817
0.00499674
0.00486763
0.00474103
0.00461705
0.00449578
0.00437726
0.0042615
0.00414846
0.00403808
0.00393029
0.00382501
0.00372213
0.00362156
0.00352323
0.00342707
0.00333297
0.00324087
0.00315069
0.00306235
0.00297579
0.00289094
0.00280774
0.00272614
0.00264608
0.00256751
0.00249038
0.00241464
0.00234026
0.00226719
0.00219539
0.00212484
0.00205549
0.0019873
0.00192025
0.00185431
0.00178943
0.00172559
0.00166276
0.00160091
0.00154
0.00148003
0.00142097
0.00136281
0.00130554
0.00124909
0.00119333
0.00113817
0.00108362
0.0010299
0.000977533
0.000927134
0.000878928
0.00083204
0.000783798
0.000729272
0.000661382
0.000572612
0.000459815
0.000330772
0.000205366
0.000105692
4.27928e-05
1.26214e-05
2.42208e-06
2.58351e-07
1.24631e-08
2.14099e-10
1.15453e-12
1.41825e-13
1.40963e-13
1.40873e-13
1.39903e-13
1.36438e-13
1.29558e-13
1.19891e-13
1.09032e-13
9.84275e-14
8.87478e-14
7.99767e-14
7.17945e-14
6.38727e-14
5.60008e-14
4.80977e-14
4.01742e-14
3.22881e-14
2.45237e-14
1.70199e-14
1.00871e-14
4.41724e-15
1.03783e-15
7.60674e-17
5.76905e-18
4.88492e-18
4.87549e-18
4.87537e-18
4.87537e-18
4.87537e-18
4.87537e-18
4.87537e-18
4.87537e-18
4.87537e-18
4.87537e-18
4.87537e-18
4.87537e-18
4.87537e-18
4.87537e-18
4.87537e-18
4.87537e-18
0.00751699
0.00751699
0.00751699
0.00751699
0.00751699
0.00751699
0.00751699
0.00751699
0.00751699
0.00751699
0.00751699
0.00751699
0.00751699
0.00751699
0.00751699
0.00751699
0.00751699
0.00751699
0.00751699
0.00751699
0.00751699
0.00751699
0.00751699
0.00751699
0.00751699
0.00751699
0.00751699
0.00751699
0.00751699
0.00751699
0.00751695
0.00751658
0.00751504
0.00751075
0.00750168
0.00748567
0.00746073
0.00742535
0.0073785
0.00731977
0.00724922
0.00716733
0.00707491
0.00697296
0.00686261
0.00674504
0.00662142
0.00649289
0.00636051
0.00622526
0.00608805
0.00594965
0.00581079
0.00567207
0.00553402
0.00539711
0.00526172
0.00512817
0.00499674
0.00486763
0.00474103
0.00461705
0.00449578
0.00437726
0.0042615
0.00414846
0.00403808
0.00393029
0.00382501
0.00372213
0.00362156
0.00352323
0.00342707
0.00333297
0.00324087
0.00315069
0.00306235
0.00297578
0.00289094
0.00280774
0.00272614
0.00264608
0.00256751
0.00249038
0.00241464
0.00234026
0.00226719
0.00219539
0.00212484
0.00205548
0.0019873
0.00192025
0.00185431
0.00178943
0.00172559
0.00166276
0.00160091
0.00154
0.00148003
0.00142096
0.00136281
0.00130554
0.00124908
0.00119333
0.00113817
0.00108362
0.0010299
0.000977533
0.000927134
0.000878928
0.000832039
0.000783798
0.000729271
0.000661381
0.00057261
0.000459813
0.000330771
0.000205364
0.000105691
4.27924e-05
1.26213e-05
2.42204e-06
2.58347e-07
1.24629e-08
2.14095e-10
1.15452e-12
1.41826e-13
1.40964e-13
1.40874e-13
1.39903e-13
1.36438e-13
1.29558e-13
1.19891e-13
1.09032e-13
9.84278e-14
8.87481e-14
7.99769e-14
7.17947e-14
6.38729e-14
5.60009e-14
4.80978e-14
4.01743e-14
3.22882e-14
2.45238e-14
1.70199e-14
1.00871e-14
4.41728e-15
1.03784e-15
7.60687e-17
5.76907e-18
4.88492e-18
4.87549e-18
4.87537e-18
4.87537e-18
4.87537e-18
4.87537e-18
4.87537e-18
4.87537e-18
4.87537e-18
4.87537e-18
4.87537e-18
4.87537e-18
4.87537e-18
4.87537e-18
4.87537e-18
4.87537e-18
0.00751699
0.00751699
0.00751699
0.00751699
0.00751699
0.00751699
0.00751699
0.00751699
0.00751699
0.00751699
0.00751699
0.00751699
0.00751699
0.00751699
0.00751699
0.00751699
0.00751699
0.00751699
0.00751699
0.00751699
0.00751699
0.00751699
0.00751699
0.00751699
0.00751699
0.00751699
0.00751699
0.00751699
0.00751699
0.00751699
0.00751695
0.00751658
0.00751504
0.00751075
0.00750168
0.00748567
0.00746073
0.00742535
0.0073785
0.00731977
0.00724922
0.00716733
0.00707491
0.00697296
0.00686261
0.00674504
0.00662142
0.00649289
0.00636051
0.00622526
0.00608805
0.00594965
0.00581079
0.00567207
0.00553402
0.00539711
0.00526172
0.00512817
0.00499673
0.00486763
0.00474103
0.00461705
0.00449578
0.00437726
0.0042615
0.00414846
0.00403808
0.00393029
0.00382501
0.00372213
0.00362156
0.00352323
0.00342707
0.00333297
0.00324087
0.00315069
0.00306235
0.00297578
0.00289094
0.00280774
0.00272614
0.00264608
0.00256751
0.00249038
0.00241464
0.00234026
0.00226719
0.00219539
0.00212484
0.00205548
0.0019873
0.00192025
0.00185431
0.00178943
0.00172559
0.00166276
0.00160091
0.00154
0.00148002
0.00142096
0.00136281
0.00130554
0.00124908
0.00119333
0.00113817
0.00108362
0.0010299
0.000977532
0.000927133
0.000878927
0.000832039
0.000783797
0.00072927
0.00066138
0.000572609
0.000459812
0.000330769
0.000205363
0.00010569
4.27921e-05
1.26212e-05
2.42202e-06
2.58344e-07
1.24628e-08
2.14093e-10
1.15451e-12
1.41826e-13
1.40964e-13
1.40874e-13
1.39903e-13
1.36438e-13
1.29558e-13
1.19891e-13
1.09032e-13
9.84281e-14
8.87484e-14
7.99772e-14
7.17949e-14
6.38732e-14
5.60011e-14
4.8098e-14
4.01744e-14
3.22883e-14
2.45239e-14
1.702e-14
1.00872e-14
4.41731e-15
1.03785e-15
7.60699e-17
5.76909e-18
4.88492e-18
4.87549e-18
4.87537e-18
4.87537e-18
4.87537e-18
4.87537e-18
4.87537e-18
4.87537e-18
4.87537e-18
4.87537e-18
4.87537e-18
4.87537e-18
4.87537e-18
4.87537e-18
4.87537e-18
4.87537e-18
0.00751699
0.00751699
0.00751699
0.00751699
0.00751699
0.00751699
0.00751699
0.00751699
0.00751699
0.00751699
0.00751699
0.00751699
0.00751699
0.00751699
0.00751699
0.00751699
0.00751699
0.00751699
0.00751699
0.00751699
0.00751699
0.00751699
0.00751699
0.00751699
0.00751699
0.00751699
0.00751699
0.00751699
0.00751699
0.00751699
0.00751695
0.00751658
0.00751504
0.00751075
0.00750168
0.00748567
0.00746073
0.00742535
0.0073785
0.00731977
0.00724922
0.00716733
0.00707491
0.00697296
0.00686261
0.00674504
0.00662142
0.00649289
0.00636051
0.00622526
0.00608805
0.00594965
0.00581079
0.00567207
0.00553402
0.00539711
0.00526172
0.00512817
0.00499673
0.00486763
0.00474103
0.00461705
0.00449578
0.00437726
0.0042615
0.00414846
0.00403808
0.00393029
0.00382501
0.00372213
0.00362156
0.00352323
0.00342707
0.00333297
0.00324087
0.00315069
0.00306235
0.00297578
0.00289094
0.00280774
0.00272614
0.00264608
0.00256751
0.00249038
0.00241464
0.00234026
0.00226719
0.00219539
0.00212484
0.00205548
0.0019873
0.00192025
0.00185431
0.00178943
0.00172559
0.00166276
0.00160091
0.00154
0.00148002
0.00142096
0.00136281
0.00130554
0.00124908
0.00119333
0.00113817
0.00108362
0.0010299
0.000977532
0.000927133
0.000878927
0.000832038
0.000783797
0.00072927
0.000661379
0.000572608
0.000459811
0.000330768
0.000205363
0.00010569
4.27918e-05
1.26211e-05
2.422e-06
2.58342e-07
1.24627e-08
2.14091e-10
1.1545e-12
1.41826e-13
1.40964e-13
1.40875e-13
1.39904e-13
1.36439e-13
1.29559e-13
1.19892e-13
1.09033e-13
9.84284e-14
8.87487e-14
7.99775e-14
7.17952e-14
6.38734e-14
5.60013e-14
4.80982e-14
4.01746e-14
3.22884e-14
2.4524e-14
1.70201e-14
1.00872e-14
4.41734e-15
1.03786e-15
7.6071e-17
5.76911e-18
4.88492e-18
4.87549e-18
4.87537e-18
4.87537e-18
4.87537e-18
4.87537e-18
4.87537e-18
4.87537e-18
4.87537e-18
4.87537e-18
4.87537e-18
4.87537e-18
4.87537e-18
4.87537e-18
4.87537e-18
4.87537e-18
0.00751699
0.00751699
0.00751699
0.00751699
0.00751699
0.00751699
0.00751699
0.00751699
0.00751699
0.00751699
0.00751699
0.00751699
0.00751699
0.00751699
0.00751699
0.00751699
0.00751699
0.00751699
0.00751699
0.00751699
0.00751699
0.00751699
0.00751699
0.00751699
0.00751699
0.00751699
0.00751699
0.00751699
0.00751699
0.00751699
0.00751695
0.00751658
0.00751504
0.00751075
0.00750168
0.00748567
0.00746073
0.00742535
0.0073785
0.00731977
0.00724922
0.00716733
0.00707491
0.00697296
0.00686261
0.00674504
0.00662142
0.00649289
0.00636051
0.00622526
0.00608805
0.00594965
0.00581079
0.00567207
0.00553402
0.00539711
0.00526172
0.00512817
0.00499673
0.00486763
0.00474102
0.00461705
0.00449578
0.00437726
0.0042615
0.00414846
0.00403808
0.00393029
0.00382501
0.00372213
0.00362156
0.00352323
0.00342707
0.00333297
0.00324087
0.00315069
0.00306235
0.00297578
0.00289093
0.00280774
0.00272614
0.00264608
0.00256751
0.00249038
0.00241464
0.00234026
0.00226719
0.00219539
0.00212484
0.00205548
0.0019873
0.00192025
0.00185431
0.00178943
0.00172559
0.00166276
0.00160091
0.00154
0.00148002
0.00142096
0.00136281
0.00130554
0.00124908
0.00119333
0.00113817
0.00108362
0.0010299
0.000977532
0.000927133
0.000878926
0.000832038
0.000783796
0.000729269
0.000661379