/*--------------------------------*- C++ -*----------------------------------*\
  =========                 |
  \\      /  F ield         | OpenFOAM: The Open Source CFD Toolbox
   \\    /   O peration     | Website:  https://openfoam.org
    \\  /    A nd           | Version:  13
     \\/     M anipulation  |
\*---------------------------------------------------------------------------*/
FoamFile
{
    format      ascii;
    class       volScalarField;
    location    "0.001";
    object      H2O;
}
// * * * * * * * * * * * * * * * * * * * * * * * * * * * * * * * * * * * * * //

dimensions      [];

internalField   nonuniform List<scalar> 
33334
(
0.0061541
0.0061541
0.0061541
0.0061541
0.0061541
0.0061541
0.0061541
0.0061541
0.0061541
0.0061541
0.0061541
0.0061541
0.0061541
0.0061541
0.0061541
0.0061541
0.0061541
0.0061541
0.0061541
0.0061541
0.0061541
0.0061541
0.0061541
0.0061541
0.0061541
0.0061541
0.0061541
0.0061541
0.0061541
0.0061541
0.00615406
0.00615376
0.0061525
0.00614899
0.00614156
0.00612845
0.00610804
0.00607907
0.00604072
0.00599264
0.00593487
0.00586784
0.00579217
0.00570871
0.00561837
0.00552211
0.00542091
0.00531568
0.0052073
0.00509658
0.00498424
0.00487094
0.00475725
0.00464368
0.00453066
0.00441857
0.00430772
0.00419839
0.00409078
0.00398508
0.00388143
0.00377993
0.00368065
0.00358362
0.00348884
0.00339629
0.00330593
0.00321768
0.00313148
0.00304725
0.00296492
0.00288442
0.00280568
0.00272865
0.00265324
0.00257941
0.00250708
0.00243621
0.00236674
0.00229863
0.00223182
0.00216628
0.00210195
0.0020388
0.00197679
0.0019159
0.00185607
0.00179729
0.00173953
0.00168275
0.00162692
0.00157203
0.00151804
0.00146492
0.00141266
0.00136122
0.00131058
0.00126071
0.00121161
0.00116325
0.00111564
0.00106875
0.00102253
0.000976882
0.000931724
0.000887058
0.000843079
0.000800208
0.00075895
0.000719487
0.000681099
0.000641596
0.000596935
0.000541318
0.000468595
0.000376208
0.000270555
0.000167926
8.63933e-05
3.49659e-05
1.03086e-05
1.97728e-06
2.10786e-07
1.01615e-08
1.74418e-10
9.40369e-13
1.16117e-13
1.15418e-13
1.15344e-13
1.14548e-13
1.11708e-13
1.06073e-13
9.8157e-14
8.92659e-14
8.05841e-14
7.26595e-14
6.54785e-14
5.87796e-14
5.22938e-14
4.58487e-14
3.93781e-14
3.28908e-14
2.64342e-14
2.00773e-14
1.39338e-14
8.2579e-15
3.61609e-15
8.49537e-16
6.22605e-17
4.7228e-18
3.99924e-18
3.99152e-18
3.99142e-18
3.99142e-18
3.99142e-18
3.99142e-18
3.99142e-18
3.99142e-18
3.99142e-18
3.99142e-18
3.99142e-18
3.99142e-18
3.99142e-18
3.99142e-18
3.99142e-18
3.99142e-18
0.0061541
0.0061541
0.0061541
0.0061541
0.0061541
0.0061541
0.0061541
0.0061541
0.0061541
0.0061541
0.0061541
0.0061541
0.0061541
0.0061541
0.0061541
0.0061541
0.0061541
0.0061541
0.0061541
0.0061541
0.0061541
0.0061541
0.0061541
0.0061541
0.0061541
0.0061541
0.0061541
0.0061541
0.0061541
0.0061541
0.00615406
0.00615376
0.0061525
0.00614899
0.00614156
0.00612845
0.00610804
0.00607907
0.00604072
0.00599263
0.00593487
0.00586784
0.00579217
0.00570871
0.00561837
0.00552211
0.00542091
0.00531568
0.0052073
0.00509658
0.00498424
0.00487094
0.00475725
0.00464368
0.00453066
0.00441857
0.00430773
0.00419839
0.00409079
0.00398509
0.00388144
0.00377994
0.00368066
0.00358363
0.00348885
0.0033963
0.00330594
0.00321769
0.00313149
0.00304727
0.00296493
0.00288443
0.0028057
0.00272866
0.00265326
0.00257942
0.0025071
0.00243623
0.00236676
0.00229865
0.00223184
0.0021663
0.00210197
0.00203882
0.00197682
0.00191592
0.00185609
0.00179732
0.00173955
0.00168277
0.00162695
0.00157205
0.00151806
0.00146495
0.00141268
0.00136124
0.0013106
0.00126074
0.00121163
0.00116328
0.00111567
0.00106878
0.00102256
0.000976912
0.000931754
0.000887089
0.00084311
0.000800239
0.000758979
0.000719516
0.000681128
0.000641628
0.000596973
0.000541366
0.000468656
0.000376278
0.000270624
0.000167979
8.64263e-05
3.49812e-05
1.03137e-05
1.97839e-06
2.10922e-07
1.01694e-08
1.74583e-10
9.41306e-13
1.16116e-13
1.15415e-13
1.15342e-13
1.14546e-13
1.11707e-13
1.06073e-13
9.81569e-14
8.92659e-14
8.05841e-14
7.26592e-14
6.54782e-14
5.87792e-14
5.22935e-14
4.58484e-14
3.93779e-14
3.28906e-14
2.6434e-14
2.00772e-14
1.39337e-14
8.25788e-15
3.6161e-15
8.49545e-16
6.22618e-17
4.72282e-18
3.99924e-18
3.99152e-18
3.99142e-18
3.99142e-18
3.99142e-18
3.99142e-18
3.99142e-18
3.99142e-18
3.99142e-18
3.99142e-18
3.99142e-18
3.99142e-18
3.99142e-18
3.99142e-18
3.99142e-18
3.99142e-18
0.0061541
0.0061541
0.0061541
0.0061541
0.0061541
0.0061541
0.0061541
0.0061541
0.0061541
0.0061541
0.0061541
0.0061541
0.0061541
0.0061541
0.0061541
0.0061541
0.0061541
0.0061541
0.0061541
0.0061541
0.0061541
0.0061541
0.0061541
0.0061541
0.0061541
0.0061541
0.0061541
0.0061541
0.0061541
0.0061541
0.00615406
0.00615376
0.0061525
0.00614899
0.00614156
0.00612845
0.00610804
0.00607907
0.00604072
0.00599263
0.00593487
0.00586784
0.00579217
0.00570871
0.00561837
0.00552211
0.00542091
0.00531568
0.0052073
0.00509658
0.00498424
0.00487094
0.00475725
0.00464368
0.00453066
0.00441858
0.00430773
0.0041984
0.00409079
0.00398509
0.00388144
0.00377994
0.00368066
0.00358363
0.00348886
0.00339631
0.00330594
0.0032177
0.0031315
0.00304728
0.00296494
0.00288444
0.00280571
0.00272867
0.00265327
0.00257944
0.00250711
0.00243625
0.00236678
0.00229867
0.00223186
0.00216631
0.00210199
0.00203884
0.00197684
0.00191594
0.00185612
0.00179734
0.00173957
0.00168279
0.00162697
0.00157208
0.00151809
0.00146498
0.00141271
0.00136127
0.00131063
0.00126077
0.00121166
0.00116331
0.0011157
0.00106882
0.00102259
0.000976946
0.000931789
0.000887125
0.000843146
0.000800274
0.000759014
0.000719549
0.000681162
0.000641665
0.000597018
0.000541425
0.000468733
0.000376371
0.000270718
0.000168058
8.64773e-05
3.50063e-05
1.03224e-05
1.98034e-06
2.11163e-07
1.01828e-08
1.74847e-10
9.42748e-13
1.16113e-13
1.15411e-13
1.15337e-13
1.14542e-13
1.11704e-13
1.0607e-13
9.81554e-14
8.92647e-14
8.05828e-14
7.2658e-14
6.5477e-14
5.87781e-14
5.22925e-14
4.58476e-14
3.93772e-14
3.28901e-14
2.64337e-14
2.0077e-14
1.39336e-14
8.25784e-15
3.6161e-15
8.49554e-16
6.22634e-17
4.72285e-18
3.99924e-18
3.99152e-18
3.99142e-18
3.99142e-18
3.99142e-18
3.99142e-18
3.99142e-18
3.99142e-18
3.99142e-18
3.99142e-18
3.99142e-18
3.99142e-18
3.99142e-18
3.99142e-18
3.99142e-18
3.99142e-18
0.0061541
0.0061541
0.0061541
0.0061541
0.0061541
0.0061541
0.0061541
0.0061541
0.0061541
0.0061541
0.0061541
0.0061541
0.0061541
0.0061541
0.0061541
0.0061541
0.0061541
0.0061541
0.0061541
0.0061541
0.0061541
0.0061541
0.0061541
0.0061541
0.0061541
0.0061541
0.0061541
0.0061541
0.0061541
0.0061541
0.00615406
0.00615376
0.0061525
0.00614899
0.00614156
0.00612845
0.00610804
0.00607907
0.00604072
0.00599263
0.00593487
0.00586784
0.00579217
0.00570871
0.00561837
0.00552211
0.00542091
0.00531568
0.0052073
0.00509658
0.00498424
0.00487094
0.00475725
0.00464368
0.00453066
0.00441858
0.00430773
0.0041984
0.00409079
0.00398509
0.00388144
0.00377994
0.00368066
0.00358363
0.00348886
0.00339631
0.00330595
0.0032177
0.00313151
0.00304728
0.00296494
0.00288445
0.00280571
0.00272868
0.00265328
0.00257944
0.00250712
0.00243625
0.00236679
0.00229867
0.00223187
0.00216632
0.002102
0.00203885
0.00197685
0.00191595
0.00185613
0.00179735
0.00173959
0.00168281
0.00162698
0.00157209
0.0015181
0.00146499
0.00141273
0.00136129
0.00131065
0.00126078
0.00121168
0.00116333
0.00111572
0.00106883
0.00102261
0.000976965
0.000931809
0.000887144
0.000843165
0.000800294
0.000759033
0.000719568
0.000681181
0.000641686
0.000597044
0.000541461
0.000468782
0.000376431
0.000270782
0.000168114
8.65155e-05
3.50261e-05
1.03297e-05
1.98201e-06
2.11373e-07
1.01946e-08
1.7508e-10
9.44003e-13
1.1611e-13
1.15406e-13
1.15333e-13
1.14538e-13
1.11701e-13
1.06068e-13
9.81532e-14
8.92629e-14
8.05813e-14
7.26566e-14
6.54758e-14
5.87771e-14
5.22916e-14
4.58469e-14
3.93767e-14
3.28897e-14
2.64335e-14
2.00769e-14
1.39336e-14
8.25785e-15
3.61612e-15
8.49567e-16
6.22651e-17
4.72288e-18
3.99924e-18
3.99152e-18
3.99142e-18
3.99142e-18
3.99142e-18
3.99142e-18
3.99142e-18
3.99142e-18
3.99142e-18
3.99142e-18
3.99142e-18
3.99142e-18
3.99142e-18
3.99142e-18
3.99142e-18
3.99142e-18
0.0061541
0.0061541
0.0061541
0.0061541
0.0061541
0.0061541
0.0061541
0.0061541
0.0061541
0.0061541
0.0061541
0.0061541
0.0061541
0.0061541
0.0061541
0.0061541
0.0061541
0.0061541
0.0061541
0.0061541
0.0061541
0.0061541
0.0061541
0.0061541
0.0061541
0.0061541
0.0061541
0.0061541
0.0061541
0.0061541
0.00615406
0.00615376
0.0061525
0.00614899
0.00614156
0.00612845
0.00610804
0.00607907
0.00604072
0.00599263
0.00593487
0.00586783
0.00579217
0.00570871
0.00561837
0.00552211
0.0054209
0.00531568
0.0052073
0.00509658
0.00498424
0.00487094
0.00475725
0.00464368
0.00453066
0.00441857
0.00430773
0.00419839
0.00409079
0.00398509
0.00388144
0.00377994
0.00368066
0.00358363
0.00348886
0.00339631
0.00330595
0.0032177
0.00313151
0.00304728
0.00296494
0.00288445
0.00280571
0.00272868
0.00265328
0.00257944
0.00250712
0.00243625
0.00236679
0.00229867
0.00223187
0.00216632
0.002102
0.00203885
0.00197685
0.00191595
0.00185613
0.00179735
0.00173959
0.00168281
0.00162699
0.0015721
0.00151811
0.00146499
0.00141273
0.00136129
0.00131065
0.00126079
0.00121168
0.00116333
0.00111572
0.00106884
0.00102262
0.00097697
0.000931814
0.00088715
0.000843172
0.0008003
0.000759039
0.000719573
0.000681186
0.000641692
0.000597053
0.000541474
0.0004688
0.000376455
0.000270808
0.000168137
8.65322e-05
3.50351e-05
1.03331e-05
1.98284e-06
2.11484e-07
1.02011e-08
1.75215e-10
9.44757e-13
1.16109e-13
1.15404e-13
1.15331e-13
1.14536e-13
1.11699e-13
1.06066e-13
9.8152e-14
8.92619e-14
8.05805e-14
7.2656e-14
6.54753e-14
5.87767e-14
5.22913e-14
4.58467e-14
3.93766e-14
3.28897e-14
2.64334e-14
2.00769e-14
1.39336e-14
8.25789e-15
3.61615e-15
8.4958e-16
6.22666e-17
4.72291e-18
3.99924e-18
3.99152e-18
3.99142e-18
3.99142e-18
3.99142e-18
3.99142e-18
3.99142e-18
3.99142e-18
3.99142e-18
3.99142e-18
3.99142e-18
3.99142e-18
3.99142e-18
3.99142e-18
3.99142e-18
3.99142e-18
0.0061541
0.0061541
0.0061541
0.0061541
0.0061541
0.0061541
0.0061541
0.0061541
0.0061541
0.0061541
0.0061541
0.0061541
0.0061541
0.0061541
0.0061541
0.0061541
0.0061541
0.0061541
0.0061541
0.0061541
0.0061541
0.0061541
0.0061541
0.0061541
0.0061541
0.0061541
0.0061541
0.0061541
0.0061541
0.0061541
0.00615406
0.00615376
0.0061525
0.00614899
0.00614156
0.00612845
0.00610804
0.00607907
0.00604072
0.00599263
0.00593487
0.00586783
0.00579217
0.00570871
0.00561836
0.00552211
0.0054209
0.00531568
0.0052073
0.00509657
0.00498424
0.00487094
0.00475725
0.00464368
0.00453066
0.00441857
0.00430773
0.00419839
0.00409079
0.00398509
0.00388144
0.00377994
0.00368066
0.00358363
0.00348886
0.00339631
0.00330595
0.0032177
0.00313151
0.00304728
0.00296494
0.00288444
0.00280571
0.00272868
0.00265328
0.00257944
0.00250712
0.00243625
0.00236679
0.00229867
0.00223187
0.00216632
0.002102
0.00203885
0.00197685
0.00191595
0.00185613
0.00179735
0.00173959
0.00168281
0.00162699
0.0015721
0.00151811
0.00146499
0.00141273
0.00136129
0.00131065
0.00126079
0.00121169
0.00116333
0.00111573
0.00106884
0.00102262
0.000976971
0.000931815
0.000887151
0.000843172
0.000800301
0.00075904
0.000719574
0.000681187
0.000641693
0.000597054
0.000541476
0.000468803
0.00037646
0.000270814
0.000168142
8.65362e-05
3.50374e-05
1.0334e-05
1.9831e-06
2.11521e-07
1.02035e-08
1.7527e-10
9.45084e-13
1.16109e-13
1.15404e-13
1.1533e-13
1.14535e-13
1.11698e-13
1.06066e-13
9.81517e-14
8.92617e-14
8.05804e-14
7.26559e-14
6.54752e-14
5.87767e-14
5.22913e-14
4.58467e-14
3.93766e-14
3.28897e-14
2.64335e-14
2.00769e-14
1.39337e-14
8.25794e-15
3.61619e-15
8.49593e-16
6.22681e-17
4.72293e-18
3.99924e-18
3.99152e-18
3.99142e-18
3.99142e-18
3.99142e-18
3.99142e-18
3.99142e-18
3.99142e-18
3.99142e-18
3.99142e-18
3.99142e-18
3.99142e-18
3.99142e-18
3.99142e-18
3.99142e-18
3.99142e-18
0.0061541
0.0061541
0.0061541
0.0061541
0.0061541
0.0061541
0.0061541
0.0061541
0.0061541
0.0061541
0.0061541
0.0061541
0.0061541
0.0061541
0.0061541
0.0061541
0.0061541
0.0061541
0.0061541
0.0061541
0.0061541
0.0061541
0.0061541
0.0061541
0.0061541
0.0061541
0.0061541
0.0061541
0.0061541
0.0061541
0.00615406
0.00615376
0.0061525
0.00614899
0.00614156
0.00612845
0.00610804
0.00607907
0.00604072
0.00599263
0.00593487
0.00586783
0.00579217
0.00570871
0.00561836
0.00552211
0.0054209
0.00531567
0.0052073
0.00509657
0.00498424
0.00487093
0.00475725
0.00464368
0.00453066
0.00441857
0.00430773
0.00419839
0.00409079
0.00398509
0.00388144
0.00377994
0.00368066
0.00358363
0.00348886
0.00339631
0.00330594
0.0032177
0.0031315
0.00304728
0.00296494
0.00288444
0.00280571
0.00272868
0.00265328
0.00257944
0.00250712
0.00243625
0.00236679
0.00229867
0.00223187
0.00216632
0.002102
0.00203885
0.00197685
0.00191595
0.00185613
0.00179735
0.00173959
0.00168281
0.00162699
0.0015721
0.00151811
0.00146499
0.00141273
0.00136129
0.00131065
0.00126079
0.00121169
0.00116333
0.00111573
0.00106884
0.00102262
0.000976971
0.000931815
0.000887151
0.000843172
0.000800301
0.00075904
0.000719574
0.000681187
0.000641693
0.000597054
0.000541475
0.000468803
0.000376459
0.000270814
0.000168143
8.65364e-05
3.50375e-05
1.03342e-05
1.98314e-06
2.11529e-07
1.02041e-08
1.75286e-10
9.45192e-13
1.16109e-13
1.15404e-13
1.1533e-13
1.14535e-13
1.11698e-13
1.06066e-13
9.81518e-14
8.92618e-14
8.05804e-14
7.2656e-14
6.54753e-14
5.87767e-14
5.22914e-14
4.58467e-14
3.93766e-14
3.28898e-14
2.64336e-14
2.0077e-14
1.39337e-14
8.25799e-15
3.61622e-15
8.49605e-16
6.22695e-17
4.72296e-18
3.99924e-18
3.99152e-18
3.99142e-18
3.99142e-18
3.99142e-18
3.99142e-18
3.99142e-18
3.99142e-18
3.99142e-18
3.99142e-18
3.99142e-18
3.99142e-18
3.99142e-18
3.99142e-18
3.99142e-18
3.99142e-18
0.0061541
0.0061541
0.0061541
0.0061541
0.0061541
0.0061541
0.0061541
0.0061541
0.0061541
0.0061541
0.0061541
0.0061541
0.0061541
0.0061541
0.0061541
0.0061541
0.0061541
0.0061541
0.0061541
0.0061541
0.0061541
0.0061541
0.0061541
0.0061541
0.0061541
0.0061541
0.0061541
0.0061541
0.0061541
0.0061541
0.00615406
0.00615376
0.0061525
0.00614899
0.00614156
0.00612845
0.00610804
0.00607907
0.00604072
0.00599263
0.00593487
0.00586783
0.00579217
0.00570871
0.00561836
0.00552211
0.0054209
0.00531567
0.0052073
0.00509657
0.00498423
0.00487093
0.00475725
0.00464368
0.00453066
0.00441857
0.00430773
0.00419839
0.00409079
0.00398509
0.00388144
0.00377994
0.00368066
0.00358363
0.00348886
0.00339631
0.00330594
0.0032177
0.0031315
0.00304728
0.00296494
0.00288444
0.00280571
0.00272868
0.00265327
0.00257944
0.00250712
0.00243625
0.00236679
0.00229867
0.00223187
0.00216632
0.002102
0.00203885
0.00197685
0.00191595
0.00185613
0.00179735
0.00173959
0.00168281
0.00162699
0.0015721
0.00151811
0.00146499
0.00141273
0.00136129
0.00131065
0.00126079
0.00121169
0.00116333
0.00111573
0.00106884
0.00102262
0.000976971
0.000931815
0.000887151
0.000843172
0.0008003
0.000759039
0.000719573
0.000681186
0.000641692
0.000597053
0.000541474
0.000468801
0.000376458
0.000270812
0.000168141
8.65356e-05
3.50372e-05
1.03341e-05
1.98313e-06
2.11529e-07
1.02043e-08
1.7529e-10
9.45226e-13
1.16109e-13
1.15404e-13
1.1533e-13
1.14535e-13
1.11699e-13
1.06066e-13
9.8152e-14
8.9262e-14
8.05806e-14
7.26561e-14
6.54754e-14
5.87768e-14
5.22915e-14
4.58469e-14
3.93767e-14
3.28899e-14
2.64336e-14
2.00771e-14
1.39338e-14
8.25803e-15
3.61625e-15
8.49616e-16
6.22708e-17
4.72298e-18
3.99924e-18
3.99152e-18
3.99142e-18
3.99142e-18
3.99142e-18
3.99142e-18
3.99142e-18
3.99142e-18
3.99142e-18
3.99142e-18
3.99142e-18
3.99142e-18
3.99142e-18
3.99142e-18
3.99142e-18
3.99142e-18
0.0061541
0.0061541
0.0061541
0.0061541
0.0061541
0.0061541
0.0061541
0.0061541
0.0061541
0.0061541
0.0061541
0.0061541
0.0061541
0.0061541
0.0061541
0.0061541
0.0061541
0.0061541
0.0061541
0.0061541
0.0061541
0.0061541
0.0061541
0.0061541
0.0061541
0.0061541
0.0061541
0.0061541
0.0061541
0.0061541
0.00615406
0.00615376
0.0061525
0.00614899
0.00614156
0.00612845
0.00610804
0.00607907
0.00604072
0.00599263
0.00593487
0.00586783
0.00579217
0.0057087
0.00561836
0.00552211
0.0054209
0.00531567
0.0052073
0.00509657
0.00498423
0.00487093
0.00475725
0.00464368
0.00453066
0.00441857
0.00430773
0.00419839
0.00409079
0.00398509
0.00388144
0.00377994
0.00368066
0.00358363
0.00348885
0.00339631
0.00330594
0.0032177
0.0031315
0.00304728
0.00296494
0.00288444
0.00280571
0.00272868
0.00265327
0.00257944
0.00250712
0.00243625
0.00236679
0.00229867
0.00223187
0.00216632
0.002102
0.00203885
0.00197685
0.00191595
0.00185613
0.00179735
0.00173959
0.00168281
0.00162699
0.00157209
0.00151811
0.00146499
0.00141273
0.00136129
0.00131065
0.00126079
0.00121168
0.00116333
0.00111572
0.00106884
0.00102262
0.000976971
0.000931814
0.00088715
0.000843171
0.0008003
0.000759038
0.000719573
0.000681185
0.000641691
0.000597051
0.000541472
0.000468799
0.000376454
0.000270809
0.000168138
8.65339e-05
3.50364e-05
1.03338e-05
1.98309e-06
2.11527e-07
1.02042e-08
1.75291e-10
9.45239e-13
1.1611e-13
1.15404e-13
1.15331e-13
1.14536e-13
1.11699e-13
1.06066e-13
9.81524e-14
8.92623e-14
8.05809e-14
7.26563e-14
6.54756e-14
5.8777e-14
5.22916e-14
4.5847e-14
3.93768e-14
3.28899e-14
2.64337e-14
2.00771e-14
1.39338e-14
8.25807e-15
3.61627e-15
8.49628e-16
6.22721e-17
4.72301e-18
3.99924e-18
3.99152e-18
3.99142e-18
3.99142e-18
3.99142e-18
3.99142e-18
3.99142e-18
3.99142e-18
3.99142e-18
3.99142e-18
3.99142e-18
3.99142e-18
3.99142e-18
3.99142e-18
3.99142e-18
3.99142e-18
0.0061541
0.0061541
0.0061541
0.0061541
0.0061541
0.0061541
0.0061541
0.0061541
0.0061541
0.0061541
0.0061541
0.0061541
0.0061541
0.0061541
0.0061541
0.0061541
0.0061541
0.0061541
0.0061541
0.0061541
0.0061541
0.0061541
0.0061541
0.0061541
0.0061541
0.0061541
0.0061541
0.0061541
0.0061541
0.0061541
0.00615406
0.00615376
0.0061525
0.00614899
0.00614156
0.00612845
0.00610804
0.00607907
0.00604072
0.00599263
0.00593487
0.00586783
0.00579217
0.0057087
0.00561836
0.00552211
0.0054209
0.00531567
0.00520729
0.00509657
0.00498423
0.00487093
0.00475724
0.00464368
0.00453066
0.00441857
0.00430772
0.00419839
0.00409079
0.00398509
0.00388144
0.00377994
0.00368066
0.00358363
0.00348885
0.00339631
0.00330594
0.0032177
0.0031315
0.00304728
0.00296494
0.00288444
0.00280571
0.00272868
0.00265327
0.00257944
0.00250712
0.00243625
0.00236678
0.00229867
0.00223187
0.00216632
0.002102
0.00203885
0.00197685
0.00191595
0.00185613
0.00179735
0.00173959
0.00168281
0.00162699
0.00157209
0.0015181
0.00146499
0.00141273
0.00136129
0.00131065
0.00126079
0.00121168
0.00116333
0.00111572
0.00106884
0.00102262
0.00097697
0.000931814
0.00088715
0.000843171
0.000800299
0.000759038
0.000719572
0.000681185
0.00064169
0.00059705
0.00054147
0.000468796
0.000376451
0.000270805
0.000168135
8.65319e-05
3.50355e-05
1.03335e-05
1.98303e-06
2.11521e-07
1.0204e-08
1.75289e-10
9.45241e-13
1.1611e-13
1.15405e-13
1.15331e-13
1.14536e-13
1.11699e-13
1.06067e-13
9.81528e-14
8.92627e-14
8.05812e-14
7.26566e-14
6.54758e-14
5.87772e-14
5.22918e-14
4.58471e-14
3.93769e-14
3.289e-14
2.64338e-14
2.00772e-14
1.39339e-14
8.25812e-15
3.6163e-15
8.49638e-16
6.22734e-17
4.72303e-18
3.99924e-18
3.99152e-18
3.99142e-18
3.99142e-18
3.99142e-18
3.99142e-18
3.99142e-18
3.99142e-18
3.99142e-18
3.99142e-18
3.99142e-18
3.99142e-18
3.99142e-18
3.99142e-18
3.99142e-18
3.99142e-18
0.0061541
0.0061541
0.0061541
0.0061541
0.0061541
0.0061541
0.0061541
0.0061541
0.0061541
0.0061541
0.0061541
0.0061541
0.0061541
0.0061541
0.0061541
0.0061541
0.0061541
0.0061541
0.0061541
0.0061541
0.0061541
0.0061541
0.0061541
0.0061541
0.0061541
0.0061541
0.0061541
0.0061541
0.0061541
0.0061541
0.00615406
0.00615376
0.0061525
0.00614899
0.00614156
0.00612845
0.00610804
0.00607907
0.00604072
0.00599263
0.00593487
0.00586783
0.00579217
0.0057087
0.00561836
0.00552211
0.0054209
0.00531567
0.00520729
0.00509657
0.00498423
0.00487093
0.00475724
0.00464367
0.00453066
0.00441857
0.00430772
0.00419839
0.00409078
0.00398509
0.00388144
0.00377994
0.00368066
0.00358363
0.00348885
0.00339631
0.00330594
0.0032177
0.0031315
0.00304727
0.00296494
0.00288444
0.00280571
0.00272868
0.00265327
0.00257944
0.00250712
0.00243625
0.00236678
0.00229867
0.00223187
0.00216632
0.002102
0.00203885
0.00197685
0.00191595
0.00185613
0.00179735
0.00173959
0.00168281
0.00162699
0.00157209
0.0015181
0.00146499
0.00141273
0.00136129
0.00131065
0.00126079
0.00121168
0.00116333
0.00111572
0.00106884
0.00102262
0.00097697
0.000931813
0.000887149
0.00084317
0.000800298
0.000759037
0.000719571
0.000681184
0.000641689
0.000597049
0.000541469
0.000468794
0.000376448
0.000270802
0.000168133
8.65303e-05
3.50347e-05
1.03333e-05
1.98297e-06
2.11514e-07
1.02037e-08
1.75285e-10
9.45227e-13
1.16111e-13
1.15405e-13
1.15332e-13
1.14537e-13
1.117e-13
1.06067e-13
9.81532e-14
8.9263e-14
8.05815e-14
7.26568e-14
6.5476e-14
5.87773e-14
5.22919e-14
4.58472e-14
3.9377e-14
3.28901e-14
2.64339e-14
2.00773e-14
1.39339e-14
8.25816e-15
3.61633e-15
8.49649e-16
6.22746e-17
4.72305e-18
3.99924e-18
3.99152e-18
3.99142e-18
3.99142e-18
3.99142e-18
3.99142e-18
3.99142e-18
3.99142e-18
3.99142e-18
3.99142e-18
3.99142e-18
3.99142e-18
3.99142e-18
3.99142e-18
3.99142e-18
3.99142e-18
0.0061541
0.0061541
0.0061541
0.0061541
0.0061541
0.0061541
0.0061541
0.0061541
0.0061541
0.0061541
0.0061541
0.0061541
0.0061541
0.0061541
0.0061541
0.0061541
0.0061541
0.0061541
0.0061541
0.0061541
0.0061541
0.0061541
0.0061541
0.0061541
0.0061541
0.0061541
0.0061541
0.0061541
0.0061541
0.0061541
0.00615406
0.00615376
0.0061525
0.00614899
0.00614156
0.00612845
0.00610804
0.00607907
0.00604072
0.00599263
0.00593487
0.00586783
0.00579217
0.0057087
0.00561836
0.00552211
0.0054209
0.00531567
0.00520729
0.00509657
0.00498423
0.00487093
0.00475724
0.00464367
0.00453066
0.00441857
0.00430772
0.00419839
0.00409078
0.00398509
0.00388144
0.00377994
0.00368066
0.00358363
0.00348885
0.00339631
0.00330594
0.0032177
0.0031315
0.00304727
0.00296494
0.00288444
0.00280571
0.00272868
0.00265327
0.00257944
0.00250712
0.00243625
0.00236678
0.00229867
0.00223187
0.00216632
0.002102
0.00203885
0.00197685
0.00191595
0.00185613
0.00179735
0.00173959
0.00168281
0.00162699
0.00157209
0.0015181
0.00146499
0.00141273
0.00136129
0.00131065
0.00126079
0.00121168
0.00116333
0.00111572
0.00106884
0.00102262
0.000976969
0.000931813
0.000887149
0.00084317
0.000800298
0.000759037
0.000719571
0.000681184
0.000641689
0.000597048
0.000541468
0.000468792
0.000376446
0.0002708
0.000168131
8.65291e-05
3.50341e-05
1.03331e-05
1.98293e-06
2.11509e-07
1.02035e-08
1.75281e-10
9.45207e-13
1.16111e-13
1.15405e-13
1.15332e-13
1.14537e-13
1.117e-13
1.06068e-13
9.81535e-14
8.92633e-14
8.05817e-14
7.2657e-14
6.54762e-14
5.87775e-14
5.22921e-14
4.58473e-14
3.93772e-14
3.28902e-14
2.6434e-14
2.00773e-14
1.3934e-14
8.25821e-15
3.61636e-15
8.49659e-16
6.22757e-17
4.72307e-18
3.99924e-18
3.99152e-18
3.99142e-18
3.99142e-18
3.99142e-18
3.99142e-18
3.99142e-18
3.99142e-18
3.99142e-18
3.99142e-18
3.99142e-18
3.99142e-18
3.99142e-18
3.99142e-18
3.99142e-18
3.99142e-18
0.0061541
0.0061541
0.0061541
0.0061541
0.0061541
0.0061541
0.0061541
0.0061541
0.0061541
0.0061541
0.0061541
0.0061541
0.0061541
0.0061541
0.0061541
0.0061541
0.0061541
0.0061541
0.0061541
0.0061541
0.0061541
0.0061541
0.0061541
0.0061541
0.0061541
0.0061541
0.0061541
0.0061541
0.0061541
0.0061541
0.00615406
0.00615376
0.0061525
0.00614899
0.00614156
0.00612845
0.00610804
0.00607907
0.00604072
0.00599263
0.00593487
0.00586783
0.00579217
0.0057087
0.00561836
0.00552211
0.0054209
0.00531567
0.00520729
0.00509657
0.00498423
0.00487093
0.00475724
0.00464367
0.00453066
0.00441857
0.00430772
0.00419839
0.00409078
0.00398509
0.00388144
0.00377994
0.00368066
0.00358363
0.00348885
0.00339631
0.00330594
0.0032177
0.0031315
0.00304727
0.00296494
0.00288444
0.00280571
0.00272868
0.00265327
0.00257944
0.00250712
0.00243625
0.00236678
0.00229867
0.00223187
0.00216632
0.002102
0.00203885
0.00197685
0.00191595
0.00185613
0.00179735
0.00173959
0.00168281
0.00162699
0.00157209
0.0015181
0.00146499
0.00141273
0.00136129
0.00131065
0.00126079
0.00121168
0.00116333
0.00111572
0.00106884
0.00102261
0.000976969
0.000931813
0.000887148
0.000843169
0.000800298
0.000759036
0.00071957
0.000681183
0.000641688
0.000597048
0.000541467
0.000468791
0.000376445
0.000270799
0.00016813
8.65284e-05
3.50338e-05
1.03329e-05
1.98291e-06
2.11506e-07
1.02033e-08
1.75278e-10
9.45193e-13
1.16111e-13
1.15406e-13
1.15332e-13
1.14537e-13
1.11701e-13
1.06068e-13
9.81538e-14
8.92636e-14
8.0582e-14
7.26573e-14
6.54764e-14
5.87777e-14
5.22922e-14
4.58475e-14
3.93773e-14
3.28903e-14
2.6434e-14
2.00774e-14
1.39341e-14
8.25825e-15
3.61638e-15
8.49669e-16
6.22768e-17
4.72308e-18
3.99924e-18
3.99152e-18
3.99142e-18
3.99142e-18
3.99142e-18
3.99142e-18
3.99142e-18
3.99142e-18
3.99142e-18
3.99142e-18
3.99142e-18
3.99142e-18
3.99142e-18
3.99142e-18
3.99142e-18
3.99142e-18
0.0061541
0.0061541
0.0061541
0.0061541
0.0061541
0.0061541
0.0061541
0.0061541
0.0061541
0.0061541
0.0061541
0.0061541
0.0061541
0.0061541
0.0061541
0.0061541
0.0061541
0.0061541
0.0061541
0.0061541
0.0061541
0.0061541
0.0061541
0.0061541
0.0061541
0.0061541
0.0061541
0.0061541
0.0061541
0.0061541
0.00615406
0.00615376
0.0061525
0.00614899
0.00614156
0.00612845
0.00610804
0.00607907
0.00604072
0.00599263
0.00593487
0.00586783
0.00579217
0.0057087
0.00561836
0.0055221
0.0054209
0.00531567
0.00520729
0.00509657
0.00498423
0.00487093
0.00475724
0.00464367
0.00453066
0.00441857
0.00430772
0.00419839
0.00409078
0.00398509
0.00388144
0.00377994
0.00368066
0.00358363
0.00348885
0.00339631
0.00330594
0.0032177
0.0031315
0.00304727
0.00296494
0.00288444
0.00280571
0.00272868
0.00265327
0.00257944
0.00250712
0.00243625
0.00236678
0.00229867
0.00223187
0.00216632
0.002102
0.00203885
0.00197685
0.00191595
0.00185613
0.00179735
0.00173959
0.00168281
0.00162699
0.00157209
0.0015181
0.00146499
0.00141273
0.00136129
0.00131065
0.00126079
0.00121168
0.00116333
0.00111572
0.00106884
0.00102261
0.000976969
0.000931812
0.000887148
0.000843169
0.000800297
0.000759036
0.00071957
0.000681183
0.000641688
0.000597047
0.000541466
0.00046879
0.000376444
0.000270798
0.000168129
8.65278e-05
3.50335e-05
1.03328e-05
1.98289e-06
2.11504e-07
1.02032e-08
1.75276e-10
9.45184e-13
1.16112e-13
1.15406e-13
1.15333e-13
1.14538e-13
1.11701e-13
1.06068e-13
9.81541e-14
8.92638e-14
8.05822e-14
7.26575e-14
6.54766e-14
5.87779e-14
5.22924e-14
4.58476e-14
3.93774e-14
3.28904e-14
2.64341e-14
2.00775e-14
1.39341e-14
8.2583e-15
3.61641e-15
8.49678e-16
6.22778e-17
4.7231e-18
3.99924e-18
3.99152e-18
3.99142e-18
3.99142e-18
3.99142e-18
3.99142e-18
3.99142e-18
3.99142e-18
3.99142e-18
3.99142e-18
3.99142e-18
3.99142e-18
3.99142e-18
3.99142e-18
3.99142e-18
3.99142e-18
0.0061541
0.0061541
0.0061541
0.0061541
0.0061541
0.0061541
0.0061541
0.0061541
0.0061541
0.0061541
0.0061541
0.0061541
0.0061541
0.0061541
0.0061541
0.0061541
0.0061541
0.0061541
0.0061541
0.0061541
0.0061541
0.0061541
0.0061541
0.0061541
0.0061541
0.0061541
0.0061541
0.0061541
0.0061541
0.0061541
0.00615406
0.00615376
0.0061525
0.00614899
0.00614156
0.00612845
0.00610804
0.00607906
0.00604072
0.00599263
0.00593487
0.00586783
0.00579217
0.0057087
0.00561836
0.0055221
0.0054209
0.00531567
0.00520729
0.00509657
0.00498423
0.00487093
0.00475724
0.00464367
0.00453066
0.00441857
0.00430772
0.00419839
0.00409078
0.00398509
0.00388144
0.00377994
0.00368066
0.00358363
0.00348885
0.00339631
0.00330594
0.0032177
0.0031315
0.00304727
0.00296494
0.00288444
0.00280571
0.00272867
0.00265327
0.00257944
0.00250712
0.00243625
0.00236678
0.00229867
0.00223187
0.00216632
0.002102
0.00203885
0.00197685
0.00191595
0.00185613
0.00179735
0.00173959
0.00168281
0.00162699
0.00157209
0.0015181
0.00146499
0.00141273
0.00136129
0.00131065
0.00126079
0.00121168
0.00116333
0.00111572
0.00106884
0.00102261
0.000976968
0.000931812
0.000887148
0.000843169
0.000800297
0.000759036
0.00071957
0.000681182
0.000641688
0.000597047
0.000541465
0.00046879
0.000376443
0.000270797
0.000168129
8.65274e-05
3.50333e-05
1.03328e-05
1.98287e-06
2.11502e-07
1.02031e-08
1.75274e-10
9.45176e-13
1.16112e-13
1.15406e-13
1.15333e-13
1.14538e-13
1.11701e-13
1.06069e-13
9.81544e-14
8.92641e-14
8.05825e-14
7.26577e-14
6.54768e-14
5.87781e-14
5.22926e-14
4.58478e-14
3.93776e-14
3.28906e-14
2.64342e-14
2.00776e-14
1.39342e-14
8.25834e-15
3.61644e-15
8.49687e-16
6.22787e-17
4.72312e-18
3.99924e-18
3.99152e-18
3.99142e-18
3.99142e-18
3.99142e-18
3.99142e-18
3.99142e-18
3.99142e-18
3.99142e-18
3.99142e-18
3.99142e-18
3.99142e-18
3.99142e-18
3.99142e-18
3.99142e-18
3.99142e-18
0.0061541
0.0061541
0.0061541
0.0061541
0.0061541
0.0061541
0.0061541
0.0061541
0.0061541
0.0061541
0.0061541
0.0061541
0.0061541
0.0061541
0.0061541
0.0061541
0.0061541
0.0061541
0.0061541
0.0061541
0.0061541
0.0061541
0.0061541
0.0061541
0.0061541
0.0061541
0.0061541
0.0061541
0.0061541
0.0061541
0.00615406
0.00615376
0.0061525
0.00614899
0.00614156
0.00612845
0.00610804
0.00607906
0.00604072
0.00599263
0.00593487
0.00586783
0.00579217
0.0057087
0.00561836
0.0055221
0.0054209
0.00531567
0.00520729
0.00509657
0.00498423
0.00487093
0.00475724
0.00464367
0.00453066
0.00441857
0.00430772
0.00419839
0.00409078
0.00398508
0.00388144
0.00377994
0.00368066
0.00358363
0.00348885
0.0033963
0.00330594
0.0032177
0.0031315
0.00304727
0.00296494
0.00288444
0.00280571
0.00272867
0.00265327
0.00257944
0.00250712
0.00243625
0.00236678
0.00229867
0.00223187
0.00216632
0.00210199
0.00203885
0.00197684
0.00191595
0.00185613
0.00179735
0.00173959
0.00168281
0.00162699
0.00157209
0.0015181
0.00146499
0.00141273
0.00136129
0.00131065
0.00126079
0.00121168
0.00116333
0.00111572
0.00106884
0.00102261
0.000976968
0.000931812
0.000887147
0.000843168
0.000800297
0.000759035
0.000719569
0.000681182
0.000641687
0.000597046
0.000541465
0.000468789
0.000376442
0.000270796
0.000168128
8.6527e-05
3.50331e-05
1.03327e-05
1.98286e-06
2.11501e-07
1.0203e-08
1.75273e-10
9.45169e-13
1.16112e-13
1.15407e-13
1.15333e-13
1.14538e-13
1.11702e-13
1.06069e-13
9.81547e-14
8.92644e-14
8.05827e-14
7.2658e-14
6.5477e-14
5.87783e-14
5.22927e-14
4.58479e-14
3.93777e-14
3.28907e-14
2.64343e-14
2.00777e-14
1.39342e-14
8.25838e-15
3.61646e-15
8.49695e-16
6.22796e-17