/*--------------------------------*- C++ -*----------------------------------*\
  =========                 |
  \\      /  F ield         | OpenFOAM: The Open Source CFD Toolbox
   \\    /   O peration     | Website:  https://openfoam.org
    \\  /    A nd           | Version:  13
     \\/     M anipulation  |
\*---------------------------------------------------------------------------*/
FoamFile
{
    format      ascii;
    class       surfaceScalarField;
    location    "0.001";
    object      phi;
}
// * * * * * * * * * * * * * * * * * * * * * * * * * * * * * * * * * * * * * //

dimensions      [1 0 -1 0 0 0 0];

internalField   nonuniform List<scalar> 
66301
(
0
0
1.11022e-16
1.11022e-16
-2.22045e-16
2.22045e-16
-2.22045e-16
1.11022e-16
0
1.11022e-16
6.66134e-16
4.44089e-16
-3.33067e-16
-2.22045e-16
-3.33067e-16
0
-5.55112e-16
-1.11022e-16
-6.66134e-16
-4.44089e-16
-8.88178e-16
-2.22045e-16
1.11022e-16
2.22045e-16
-4.44089e-16
-1.11022e-16
-3.33067e-16
-2.22045e-16
-6.66134e-16
-4.44089e-16
-3.33067e-16
-3.33067e-16
-2.22045e-16
-2.22045e-16
-4.44089e-16
0
-1.11022e-16
1.11022e-16
-5.55112e-16
0
-2.22045e-16
0
0
0
-3.33067e-16
-1.11022e-16
-8.88178e-16
-1.11022e-16
-8.88178e-16
-1.11022e-16
-6.66134e-16
0
7.85594e-13
0
1.71945e-09
6.77236e-15
4.47263e-07
2.62712e-12
2.00701e-05
1.33157e-10
0.000241281
1.81797e-09
0.00121127
1.01882e-08
0.00359592
3.26567e-08
0.00782892
7.48171e-08
0.0140679
1.38916e-07
0.022257
2.24329e-07
0.032193
3.2856e-07
0.0435912
4.48118e-07
0.0561406
5.7927e-07
0.069542
7.18556e-07
0.0835292
8.63025e-07
0.0978774
1.01027e-06
0.112404
1.15839e-06
0.126963
1.30593e-06
0.141444
1.45188e-06
0.155761
1.59587e-06
0.16985
1.73811e-06
0.183666
1.87446e-06
0.197173
2.01057e-06
0.210347
2.1433e-06
0.22317
2.26963e-06
0.235629
2.39246e-06
0.247712
2.50865e-06
0.259406
2.6121e-06
0.270698
2.7356e-06
0.281566
2.85673e-06
0.29198
2.97053e-06
0.301896
3.086e-06
0.311252
3.21216e-06
0.319962
3.35343e-06
0.327914
3.51191e-06
0.334976
3.6896e-06
0.341006
3.88647e-06
0.345884
4.09937e-06
0.349547
4.31921e-06
0.352032
4.54406e-06
0.353493
4.79346e-06
0.354157
5.17959e-06
0.354389
5.74601e-06
0.354369
4.62984e-06
0.353946
4.93585e-06
0.353371
5.17937e-06
0.352843
5.13665e-06
0.352389
5.0328e-06
0.352001
5.08051e-06
0.351666
5.06743e-06
0.351361
5.00501e-06
0.351072
4.96372e-06
0.350792
4.95337e-06
0.35052
4.92802e-06
0.350248
4.91229e-06
0.349971
4.87916e-06
0.349689
4.88787e-06
0.349405
4.86445e-06
0.349122
4.8536e-06
0.348838
4.86423e-06
0.348552
4.78158e-06
0.34826
4.84738e-06
0.347969
4.74543e-06
0.347682
4.76901e-06
0.347401
4.7228e-06
0.34712
4.77518e-06
0.346834
4.61715e-06
0.346547
4.75415e-06
0.346264
4.57818e-06
0.34599
4.58366e-06
0.345715
4.74177e-06
0.345431
4.53627e-06
0.345136
4.33873e-06
0.344839
4.41966e-06
0.344555
4.68232e-06
0.344281
4.96871e-06
0.344008
4.7513e-06
0.343731
4.6802e-06
0.343458
4.25018e-06
0.343194
4.17927e-06
0.342925
4.18216e-06
0.342633
4.45233e-06
0.342306
4.1803e-06
0.341949
2.13431e-06
0.341615
-7.27411e-07
0.341535
-1.64429e-06
0.341874
-4.85032e-06
0.343391
-8.93005e-06
0.347554
-1.48231e-05
0.356846
-2.0316e-05
0.37519
-2.26749e-05
0.407949
-2.25013e-05
0.46107
-2.23727e-05
0.537562
-2.31988e-05
0.630204
-2.01867e-05
0.715483
-1.09927e-05
0.769743
1.77545e-06
0.791885
5.53771e-06
0.793871
-9.57254e-07
0.792621
-1.72043e-06
0.791062
-3.91702e-06
0.78896
-5.97463e-06
0.786559
-7.48818e-06
0.784458
-7.96074e-06
0.782728
-7.81773e-06
0.781182
-7.44997e-06
0.77989
-7.07351e-06
0.778784
-6.79297e-06
0.777746
-6.60636e-06
0.776697
-6.47458e-06
0.775606
-6.37549e-06
0.774463
-6.30187e-06
0.773261
-6.24755e-06
0.771997
-6.2074e-06
0.770667
-6.18774e-06
0.769206
-6.22069e-06
0.767319
-6.32658e-06
0.76408
-6.44579e-06
0.75676
-6.5001e-06
0.737384
-6.46527e-06
0.683689
-6.28908e-06
0.543745
-5.7124e-06
0.274926
-4.0422e-06
0.047805
-1.48759e-06
0.00150184
-1.88301e-07
5.54394e-06
-5.28635e-09
1.71698e-09
-1.61346e-11
1.16185e-13
-4.66294e-15
-2.77556e-16
0
-3.33067e-16
-4.44089e-16
-1.11022e-16
-1.66533e-16
-6.10623e-16
-1.11022e-16
-1.11022e-16
-1.11022e-16
1.66533e-16
1.66533e-16
2.77556e-16
-2.22045e-16
3.33067e-16
-2.77556e-16
4.44089e-16
-4.44089e-16
2.22045e-16
-1.66533e-16
5.55112e-16
5.55112e-17
-2.22045e-16
1.11022e-16
0
0
-3.33067e-16
0
-2.22045e-16
-1.11022e-16
-3.33067e-16
1.11022e-16
-1.11022e-16
-2.22045e-16
-6.66134e-16
-3.33067e-16
-2.22045e-16
-4.44089e-16
-1.11022e-16
-4.44089e-16
-3.33067e-16
-6.66134e-16
-1.11022e-16
-7.77156e-16
-5.55112e-16
0
-3.33067e-16
-2.22045e-16
-5.55112e-16
-6.66134e-16
-4.44089e-16
-5.55112e-16
-1.11022e-16
-5.55112e-16
0
-2.22045e-16
3.33067e-16
-2.22045e-16
-1.11022e-16
-2.22045e-16
-2.22045e-16
-5.55112e-16
-4.44089e-16
-1.11022e-16
0
-3.33067e-16
-2.22045e-16
-3.33067e-16
-2.22045e-16
-7.77156e-16
-2.22045e-16
-7.77156e-16
0
-6.66134e-16
2.22045e-16
7.8515e-13
-2.22045e-16
1.71953e-09
4.88498e-15
4.47282e-07
1.392e-12
2.00708e-05
7.94995e-11
0.000241288
1.20931e-09
0.0012113
7.32933e-09
0.00359601
2.4962e-08
0.00782911
5.99395e-08
0.0140683
1.15397e-07
0.0222576
1.91668e-07
0.032194
2.87045e-07
0.0435927
3.98606e-07
0.0561427
5.22933e-07
0.0695449
6.56669e-07
0.0835331
7.96842e-07
0.0978823
9.40974e-07
0.11241
1.08707e-06
0.126971
1.23358e-06
0.141453
1.37936e-06
0.155772
1.52378e-06
0.169863
1.66742e-06
0.18368
1.80557e-06
0.197189
1.94003e-06
0.210366
2.07272e-06
0.223191
2.20029e-06
0.235653
2.32153e-06
0.247738
2.47512e-06
0.259435
2.56853e-06
0.270729
2.6877e-06
0.2816
2.81526e-06
0.292017
2.9415e-06
0.301936
3.06754e-06
0.311295
3.20116e-06
0.320008
3.34108e-06
0.327964
3.49606e-06
0.335029
3.66989e-06
0.341063
3.86314e-06
0.345945
4.07388e-06
0.349613
4.2991e-06
0.352102
4.53887e-06
0.353569
4.79456e-06
0.354237
5.05101e-06
0.354475
5.19749e-06
0.35446
5.38283e-06
0.354041
4.87581e-06
0.353472
4.91807e-06
0.352949
5.24359e-06
0.3525
5.12417e-06
0.352117
5.07196e-06
0.351786
5.06539e-06
0.351487
5.0271e-06
0.351203
4.98228e-06
0.350928
4.97157e-06
0.35066
4.91855e-06
0.350394
4.92514e-06
0.350122
4.85257e-06
0.349845
4.88765e-06
0.349565
4.83914e-06
0.349287
4.79577e-06
0.349008
4.8864e-06
0.348727
4.64334e-06
0.34844
4.89971e-06
0.348153
4.60576e-06
0.347871
4.76186e-06
0.347595
4.58361e-06
0.347319
4.79292e-06
0.347038
4.30545e-06
0.346755
4.88105e-06
0.346478
4.36444e-06
0.346208
4.2678e-06
0.345938
4.85243e-06
0.345659
4.28481e-06
0.345368
3.99491e-06
0.345076
4.33974e-06
0.344796
4.46525e-06
0.344528
4.51869e-06
0.344261
4.12145e-06
0.343989
4.27553e-06
0.343721
3.73177e-06
0.343461
3.58441e-06
0.343198
3.32689e-06
0.34291
3.48679e-06
0.342589
3.37277e-06
0.342234
1.45392e-06
0.3419
-6.67235e-07
0.341818
-2.19848e-06
0.342151
-3.81421e-06
0.343655
-6.82576e-06
0.347797
-1.11372e-05
0.357059
-1.48637e-05
0.375368
-1.59166e-05
0.408092
-1.5674e-05
0.461179
-1.69706e-05
0.537642
-2.14933e-05
0.630269
-2.49172e-05
0.715563
-2.56719e-05
0.769857
-1.94024e-05
0.792033
-1.26502e-05
0.794027
-6.69422e-06
0.79278
-6.12389e-06
0.791219
-6.47195e-06
0.789113
-7.23379e-06
0.786705
-7.5852e-06
0.784596
-7.51525e-06
0.782857
-7.33985e-06
0.781303
-6.96297e-06
0.780003
-6.6056e-06
0.77889
-6.361e-06
0.777845
-6.19678e-06
0.776789
-6.06712e-06
0.775691
-5.9553e-06
0.774541
-5.85995e-06
0.773333
-5.78052e-06
0.772061
-5.7204e-06
0.770725
-5.69656e-06
0.769257
-5.73407e-06
0.767363
-5.82087e-06
0.764117
-5.90415e-06
0.756789
-5.95002e-06
0.737407
-5.93041e-06
0.683704
-5.74811e-06
0.543754
-5.00357e-06
0.274931
-3.05672e-06
0.0478062
-1.02277e-06
0.00150189
-1.10155e-07
5.5442e-06
-2.45514e-09
1.71708e-09
-7.21012e-12
1.15574e-13
-2.55351e-15
-1.66533e-16
-5.55112e-17
-1.11022e-16
-3.33067e-16
-1.66533e-16
-3.88578e-16
-3.33067e-16
-3.33067e-16
1.11022e-16
-3.33067e-16
-1.11022e-16
-2.77556e-16
0
-4.996e-16
1.66533e-16
-1.66533e-16
4.996e-16
-3.88578e-16
3.33067e-16
-4.996e-16
1.66533e-16
-4.44089e-16
-5.55112e-16
0
-5.55112e-16
0
-3.33067e-16
-1.11022e-16
-7.77156e-16
0
-4.44089e-16
-5.55112e-16
-4.44089e-16
3.33067e-16
1.11022e-16
-1.11022e-16
-4.44089e-16
-7.77156e-16
-4.44089e-16
-3.33067e-16
-2.22045e-16
-8.88178e-16
-2.22045e-16
-5.55112e-16
-1.11022e-16
-3.33067e-16
-3.33067e-16
-2.22045e-16
-3.33067e-16
-4.44089e-16
-3.33067e-16
-5.55112e-16
-3.33067e-16
-5.55112e-16
-3.33067e-16
-5.55112e-16
-4.44089e-16
-2.22045e-16
-1.11022e-16
-2.22045e-16
-2.22045e-16
-2.22045e-16
-2.22045e-16
-2.22045e-16
0
-4.44089e-16
0
-2.22045e-16
3.33067e-16
-4.44089e-16
1.11022e-16
-4.44089e-16
3.33067e-16
-2.22045e-16
-1.11022e-16
7.85039e-13
0
1.71963e-09
3.33067e-15
4.47299e-07
1.06226e-12
2.00713e-05
6.28869e-11
0.000241292
9.67537e-10
0.00121131
5.92301e-09
0.00359603
2.0479e-08
0.00782915
5.01211e-08
0.0140683
9.84333e-08
0.0222577
1.66505e-07
0.0321941
2.53316e-07
0.0435928
3.56486e-07
0.0561428
4.72983e-07
0.069545
5.99664e-07
0.0835331
7.33635e-07
0.0978824
8.72416e-07
0.11241
1.01399e-06
0.126971
1.15676e-06
0.141453
1.29955e-06
0.155772
1.44153e-06
0.169863
1.58221e-06
0.18368
1.72068e-06
0.197189
1.8549e-06
0.210366
1.98756e-06
0.223191
2.11895e-06
0.235653
2.25048e-06
0.247738
2.38142e-06
0.259435
2.49813e-06
0.270729
2.60781e-06
0.2816
2.72799e-06
0.292017
2.85339e-06
0.301936
2.9795e-06
0.311295
3.10871e-06
0.320009
3.24673e-06
0.327964
3.39998e-06
0.33503
3.57248e-06
0.341064
3.76562e-06
0.345946
3.97856e-06
0.349613
4.209e-06
0.352103
4.45465e-06
0.353569
4.7066e-06
0.354237
4.92904e-06
0.354475
5.11517e-06
0.35446
5.37263e-06
0.354042
4.96345e-06
0.353472
4.90642e-06
0.352949
5.00204e-06
0.3525
5.13381e-06
0.352117
5.06123e-06
0.351787
5.02771e-06
0.351487
5.00164e-06
0.351203
4.95672e-06
0.350928
4.9489e-06
0.35066
4.87521e-06
0.350394
4.9005e-06
0.350122
4.79952e-06
0.349845
4.85218e-06
0.349565
4.78595e-06
0.349287
4.71889e-06
0.349008
4.86485e-06
0.348727
4.50868e-06
0.34844
4.90215e-06
0.348153
4.45503e-06
0.347871
4.7286e-06
0.347595
4.42752e-06
0.347319
4.77167e-06
0.347038
4.03575e-06
0.346755
4.94426e-06
0.346478
4.14013e-06
0.346208
3.97975e-06
0.345938
4.8749e-06
0.345659
4.00586e-06
0.345368
3.69477e-06
0.345076
4.21979e-06
0.344796
4.2091e-06
0.344528
4.03413e-06
0.344261
3.41632e-06
0.343989
3.92313e-06
0.343721
3.34999e-06
0.343461
3.07171e-06
0.343198
2.62013e-06
0.34291
2.48385e-06
0.342589
2.25834e-06
0.342234
9.71409e-07
0.3419
-7.26589e-07
0.341818
-2.55644e-06
0.342151
-3.66942e-06
0.343655
-5.79808e-06
0.347796
-8.58633e-06
0.357056
-1.08754e-05
0.375364
-1.24488e-05
0.408084
-1.31615e-05
0.461165
-1.5092e-05
0.537626
-2.0536e-05
0.630259
-2.75098e-05
0.71556
-3.0231e-05
0.769859
-2.48549e-05
0.792034
-1.8286e-05
0.794028
-9.92054e-06
0.79278
-9.34851e-06
0.791219
-8.80429e-06
0.789113
-8.37877e-06
0.786705
-7.77819e-06
0.784596
-7.33078e-06
0.782856
-7.05398e-06
0.781303
-6.67797e-06
0.780003
-6.34824e-06
0.77889
-6.11898e-06
0.777845
-5.95927e-06
0.776789
-5.82769e-06
0.775691
-5.71138e-06
0.774541
-5.60881e-06
0.773332
-5.52277e-06
0.772061
-5.46299e-06
0.770724
-5.44494e-06
0.769257
-5.47417e-06
0.767362
-5.52916e-06
0.764116
-5.58271e-06
0.756788
-5.60466e-06
0.737406
-5.53559e-06
0.683704
-5.2284e-06
0.543755
-4.50338e-06
0.274932
-2.76375e-06
0.047807
-9.07399e-07
0.00150194
-9.60822e-08
5.54448e-06
-2.05044e-09
1.7172e-09
-5.52047e-12
1.15463e-13
-1.60982e-15
-3.33067e-16
-1.11022e-16
-1.66533e-16
1.11022e-16
0
-1.66533e-16
-1.11022e-16
0
1.11022e-16
1.66533e-16
-1.11022e-16
-2.77556e-16
5.55112e-17
-5.55112e-17
1.11022e-16
-2.77556e-16
3.33067e-16
-2.77556e-16
3.33067e-16
-1.66533e-16
1.11022e-16
-5.55112e-16
-3.33067e-16
-2.22045e-16
-7.77156e-16
-1.11022e-16
-7.77156e-16
0
-5.55112e-16
0
-6.66134e-16
-2.22045e-16
-5.55112e-16
2.22045e-16
-3.33067e-16
-4.44089e-16
-2.22045e-16
-1.11022e-16
-2.22045e-16
-4.44089e-16
-4.44089e-16
-7.77156e-16
-2.22045e-16
-6.66134e-16
2.22045e-16
-6.66134e-16
-1.11022e-16
-1.11022e-16
-1.11022e-16
-3.33067e-16
-4.44089e-16
-4.44089e-16
-2.22045e-16
-7.77156e-16
-4.44089e-16
-3.33067e-16
2.22045e-16
-3.33067e-16
-1.11022e-16
-3.33067e-16
0
-2.22045e-16
4.44089e-16
-2.22045e-16
2.22045e-16
-2.22045e-16
-1.11022e-16
-3.33067e-16
-4.44089e-16
-6.66134e-16
1.11022e-16
-8.88178e-16
-1.11022e-16
-3.33067e-16
-2.22045e-16
7.85594e-13
3.33067e-16
1.71972e-09
2.77556e-15
4.47314e-07
8.94285e-13
2.00717e-05
5.37239e-11
0.000241295
8.3362e-10
0.00121132
5.12874e-09
0.00359606
1.78155e-08
0.00782919
4.3866e-08
0.0140684
8.67982e-08
0.0222578
1.48043e-07
0.0321942
2.27111e-07
0.0435929
3.22166e-07
0.0561429
4.30635e-07
0.0695451
5.49691e-07
0.0835332
6.76605e-07
0.0978825
8.08953e-07
0.11241
9.44711e-07
0.126971
1.08226e-06
0.141453
1.22035e-06
0.155772
1.35807e-06
0.169863
1.49471e-06
0.18368
1.62973e-06
0.197189
1.76172e-06
0.210366
1.89144e-06
0.223191
2.02002e-06
0.235653
2.1489e-06
0.247738
2.27485e-06
0.259435
2.39954e-06
0.270729
2.51249e-06
0.2816
2.62846e-06
0.292017
2.75238e-06
0.301936
2.88156e-06
0.311295
3.01075e-06
0.320009
3.14766e-06
0.327964
3.29755e-06
0.33503
3.46495e-06
0.341064
3.65262e-06
0.345946
3.8607e-06
0.349613
4.08655e-06
0.352103
4.32465e-06
0.353569
4.56261e-06
0.354237
4.76311e-06
0.354475
4.96349e-06
0.354459
5.0971e-06
0.354042
5.00017e-06
0.353472
4.88113e-06
0.352949
4.86936e-06
0.3525
4.98028e-06
0.352117
4.987e-06
0.351786
4.95015e-06
0.351487
4.91987e-06
0.351203
4.87533e-06
0.350928
4.87508e-06
0.35066
4.79055e-06
0.350393
4.82671e-06
0.350122
4.71221e-06
0.349845
4.77093e-06
0.349565
4.69795e-06
0.349287
4.61374e-06
0.349008
4.78416e-06
0.348727
4.37098e-06
0.34844
4.82883e-06
0.348153
4.29332e-06
0.347871
4.6555e-06
0.347595
4.24869e-06
0.347319
4.69395e-06
0.347038
3.78465e-06
0.346755
4.87647e-06
0.346478
3.92424e-06
0.346208
3.73704e-06
0.345938
4.76364e-06
0.345659
3.7291e-06
0.345368
3.44102e-06
0.345076
4.04509e-06
0.344796
3.92634e-06
0.344528
3.63251e-06
0.34426
2.80683e-06
0.343988
3.37776e-06
0.34372
2.81484e-06
0.343461
2.70383e-06
0.343197
2.10124e-06
0.34291
1.79549e-06
0.342588
1.25572e-06
0.342233
-1.21828e-07
0.3419
-1.35208e-06
0.341818
-2.83631e-06
0.34215
-3.68387e-06
0.343654
-5.16782e-06
0.347795
-7.12956e-06
0.357054
-9.16398e-06
0.375358
-1.10234e-05
0.408072
-1.26193e-05
0.461149
-1.54763e-05
0.537605
-2.0555e-05
0.63024
-2.61534e-05
0.71555
-2.72013e-05
0.76986
-2.38953e-05
0.792038
-1.73611e-05
0.794032
-1.12442e-05
0.792782
-1.07782e-05
0.79122
-9.8203e-06
0.789114
-8.95656e-06
0.786705
-8.01525e-06
0.784596
-7.36593e-06
0.782856
-6.96785e-06
0.781303
-6.58662e-06
0.780003
-6.27363e-06
0.77889
-6.04709e-06
0.777845
-5.87562e-06
0.776789
-5.73171e-06
0.775691
-5.60543e-06
0.774541
-5.49597e-06
0.773332
-5.40674e-06
0.772061
-5.34498e-06
0.770724
-5.31955e-06
0.769256
-5.32841e-06
0.767362
-5.35042e-06
0.764115
-5.36161e-06
0.756788
-5.3386e-06
0.737405
-5.24929e-06
0.683704
-5.05347e-06
0.543756
-4.27307e-06
0.274934
-2.72696e-06
0.0478078
-8.97729e-07
0.00150199
-9.50179e-08
5.54474e-06
-2.02528e-09
1.71732e-09
-5.40168e-12
1.15741e-13
-7.77156e-16
-4.996e-16
-2.77556e-16
-2.77556e-16
0
1.11022e-16
-1.11022e-16
5.55112e-17
-4.996e-16
-2.77556e-16
0
-1.11022e-16
-1.11022e-16
-1.11022e-16
2.22045e-16
5.55112e-17
-1.11022e-16
4.44089e-16
-5.55112e-17
1.66533e-16
-5.55112e-17
2.77556e-16
1.66533e-16
5.55112e-17
-1.11022e-16
-3.33067e-16
2.22045e-16
-4.44089e-16
0
-7.77156e-16
-1.11022e-16
-6.66134e-16
3.33067e-16
-3.33067e-16
-1.11022e-16
-2.22045e-16
-4.44089e-16
2.22045e-16
-2.22045e-16
0
-4.44089e-16
0
-6.66134e-16
-4.44089e-16
-1.11022e-15
1.11022e-16
-5.55112e-16
1.11022e-16
-3.33067e-16
-1.11022e-16
-1.11022e-16
-1.11022e-16
-5.55112e-16
-4.44089e-16
-4.44089e-16
-2.22045e-16
-4.44089e-16
0
-2.22045e-16
3.33067e-16
1.11022e-16
-1.11022e-16
-1.11022e-16
-3.33067e-16
-6.66134e-16
0
-3.33067e-16
-1.11022e-16
1.11022e-16
-1.11022e-16
-6.66134e-16
-2.22045e-16
-7.77156e-16
-1.11022e-16
-3.33067e-16
1.11022e-16
7.85816e-13
-1.11022e-16
1.71979e-09
2.22045e-15
4.47328e-07
7.4829e-13
2.00721e-05
4.5243e-11
0.000241299
7.08363e-10
0.00121133
4.40044e-09
0.00359608
1.54339e-08
0.00782924
3.83644e-08
0.0140684
7.66288e-08
0.0222578
1.31899e-07
0.0321943
2.04083e-07
0.043593
2.91745e-07
0.056143
3.92654e-07
0.0695452
5.04254e-07
0.0835333
6.24011e-07
0.0978826
7.49622e-07
0.11241
8.79124e-07
0.126971
1.01091e-06
0.141453
1.14373e-06
0.155772
1.2766e-06
0.169863
1.40874e-06
0.18368
1.53951e-06
0.19719
1.66828e-06
0.210366
1.79487e-06
0.223192
1.92025e-06
0.235653
2.04517e-06
0.247738
2.16874e-06
0.259435
2.29108e-06
0.270729
2.40742e-06
0.2816
2.52099e-06
0.292017
2.63989e-06
0.301936
2.76599e-06
0.311295
2.89752e-06
0.320009
3.03524e-06
0.327964
3.1847e-06
0.33503
3.35052e-06
0.341064
3.53573e-06
0.345946
3.7406e-06
0.349613
3.9619e-06
0.352103
4.19171e-06
0.353569
4.41773e-06
0.354237
4.60948e-06
0.354475
4.79392e-06
0.354459
4.8921e-06
0.354041
4.91638e-06
0.353472
4.83574e-06
0.352949
4.78547e-06
0.352499
4.82707e-06
0.352117
4.86821e-06
0.351786
4.84773e-06
0.351487
4.81494e-06
0.351203
4.76405e-06
0.350928
4.76925e-06
0.35066
4.67734e-06
0.350393
4.71954e-06
0.350122
4.59789e-06
0.349844
4.65481e-06
0.349565
4.58269e-06
0.349287
4.484e-06
0.349008
4.66421e-06
0.348726
4.22734e-06
0.34844
4.70899e-06
0.348153
4.11557e-06
0.347871
4.55408e-06
0.347595
4.04038e-06
0.347319
4.58435e-06
0.347038
3.53807e-06
0.346755
4.75306e-06
0.346478
3.69559e-06
0.346208
3.50434e-06
0.345938
4.58875e-06
0.345659
3.4371e-06
0.345368
3.18465e-06
0.345076
3.81297e-06
0.344796
3.62318e-06
0.344528
3.25359e-06
0.34426
2.31768e-06
0.343988
2.93031e-06
0.34372
2.29243e-06
0.343461
2.17244e-06
0.343197
1.59772e-06
0.342909
1.26631e-06
0.342587
6.22631e-07
0.342233
-8.22343e-07
0.341899
-1.98634e-06
0.341817
-3.11216e-06
0.342149
-3.77843e-06
0.343653
-4.92207e-06
0.347793
-6.50073e-06
0.357052
-8.40596e-06
0.375354
-1.03315e-05
0.408065
-1.2179e-05
0.461137
-1.49181e-05
0.537591
-1.87353e-05
0.630225
-2.24219e-05
0.715542
-2.27903e-05
0.769858
-2.08972e-05
0.79204
-1.53987e-05
0.794034
-1.15325e-05
0.792783
-1.11541e-05
0.79122
-1.01629e-05
0.789114
-9.25355e-06
0.786705
-8.28785e-06
0.784595
-7.5092e-06
0.782856
-7.00823e-06
0.781303
-6.6065e-06
0.780003
-6.28516e-06
0.778889
-6.04724e-06
0.777845
-5.86373e-06
0.776789
-5.70407e-06
0.775691
-5.55743e-06
0.774541
-5.43731e-06
0.773332
-5.3399e-06
0.77206
-5.26942e-06
0.770723
-5.23152e-06
0.769256
-5.21191e-06
0.767361
-5.20327e-06
0.764115
-5.1987e-06
0.756788
-5.19115e-06
0.737405
-5.13323e-06
0.683704
-4.88275e-06
0.543757
-4.17306e-06
0.274937
-2.66808e-06
0.0478087
-8.76211e-07
0.00150203
-9.24758e-08
5.545e-06
-1.97069e-09
1.71743e-09
-5.27201e-12
1.15352e-13
-7.21645e-16
-3.88578e-16
-2.22045e-16
-4.996e-16
-3.88578e-16
5.55112e-17
5.55112e-17
5.55112e-16
5.55112e-17
-3.33067e-16
-4.996e-16
1.11022e-16
5.55112e-17
-4.44089e-16
-1.11022e-16
5.55112e-17
5.55112e-17
6.66134e-16
-2.22045e-16
2.77556e-16
-1.66533e-16
1.11022e-16
-4.44089e-16
-3.88578e-16
-1.11022e-16
-5.55112e-16
0
-4.44089e-16
-1.11022e-16
-4.44089e-16
0
-4.44089e-16
1.11022e-16
-2.22045e-16
3.33067e-16
-4.44089e-16
-4.44089e-16
-3.33067e-16
-3.33067e-16
-1.11022e-16
-2.22045e-16
3.33067e-16
-5.55112e-16
1.11022e-16
-8.88178e-16
3.33067e-16
-3.33067e-16
5.55112e-16
-4.44089e-16
2.22045e-16
-4.44089e-16
2.22045e-16
-4.44089e-16
0
-1.11022e-16
1.11022e-16
-5.55112e-16
0
-3.33067e-16
1.11022e-16
-1.11022e-16
1.11022e-16
2.22045e-16
0
-7.77156e-16
-1.11022e-16
-2.22045e-16
0
-2.22045e-16
0
-5.55112e-16
0
-5.55112e-16
0
-1.11022e-16
2.22045e-16
7.85816e-13
-1.11022e-16
1.71985e-09
1.66533e-15
4.47339e-07
6.10956e-13
2.00725e-05
3.71588e-11
0.000241302
5.87901e-10
0.00121134
3.69887e-09
0.00359611
1.31494e-08
0.00782927
3.3113e-08
0.0140685
6.69374e-08
0.0222579
1.16481e-07
0.0321944
1.82003e-07
0.0435931
2.62456e-07
0.0561431
3.55951e-07
0.0695453
4.60207e-07
0.0835335
5.72888e-07
0.0978827
6.91818e-07
0.11241
8.15095e-07
0.126971
9.41132e-07
0.141453
1.06865e-06
0.155772
1.19663e-06
0.169863
1.32426e-06
0.183681
1.45087e-06
0.19719
1.57602e-06
0.210366
1.6994e-06
0.223192
1.82145e-06
0.235653
1.9428e-06
0.247738
2.06357e-06
0.259435
2.18269e-06
0.270729
2.29943e-06
0.2816
2.41292e-06
0.292017
2.52843e-06
0.301936
2.65058e-06
0.311296
2.78068e-06
0.320009
2.91874e-06
0.327965
3.06798e-06
0.33503
3.23245e-06
0.341064
3.41508e-06
0.345946
3.61605e-06
0.349614
3.83177e-06
0.352103
4.05241e-06
0.353569
4.2678e-06
0.354237
4.44939e-06
0.354475
4.62505e-06
0.354459
4.73798e-06
0.354041
4.79177e-06
0.353472
4.75791e-06
0.352949
4.70704e-06
0.352499
4.70533e-06
0.352117
4.73089e-06
0.351786
4.7284e-06
0.351487
4.70717e-06
0.351202
4.65023e-06
0.350928
4.65452e-06
0.35066
4.55629e-06
0.350393
4.60025e-06
0.350122
4.4748e-06
0.349844
4.52219e-06
0.349565
4.45721e-06
0.349287
4.34532e-06
0.349008
4.52491e-06
0.348726
4.08888e-06
0.34844
4.56269e-06
0.348153
3.93807e-06
0.347871
4.43685e-06
0.347595
3.82131e-06
0.347319
4.45951e-06
0.347038
3.30348e-06
0.346755
4.60179e-06
0.346477
3.47165e-06
0.346208
3.28079e-06
0.345938
4.38426e-06
0.345659
3.15329e-06
0.345368
2.92756e-06
0.345076
3.55281e-06
0.344796
3.31943e-06
0.344528
2.89263e-06
0.34426
1.9189e-06
0.343988
2.54413e-06
0.34372
1.86776e-06
0.34346
1.67706e-06
0.343196
1.08223e-06
0.342909
7.5515e-07
0.342587
1.17779e-07
0.342232
-1.27841e-06
0.341897
-2.42484e-06
0.341816
-3.3715e-06
0.342148
-3.95729e-06
0.343652
-4.92791e-06
0.347792
-6.31103e-06
0.357051
-8.01867e-06
0.375352
-9.7848e-06
0.408063
-1.13608e-05
0.461133
-1.30767e-05
0.537585
-1.56332e-05
0.63022
-1.8156e-05
0.715538
-1.89519e-05
0.769857
-1.78982e-05
0.792042
-1.41167e-05
0.794035
-1.13618e-05
0.792785
-1.10276e-05
0.791221
-1.00916e-05
0.789114
-9.26535e-06
0.786705
-8.37273e-06
0.784596
-7.57915e-06
0.782856
-7.05594e-06
0.781303
-6.64656e-06
0.780003
-6.31766e-06
0.778889
-6.06871e-06
0.777845
-5.86905e-06
0.776789
-5.6934e-06
0.775691
-5.5352e-06
0.774541
-5.39892e-06
0.773332
-5.28841e-06
0.77206
-5.20718e-06
0.770723
-5.15735e-06
0.769256
-5.12244e-06
0.767361
-5.10689e-06
0.764115
-5.09788e-06
0.756788
-5.08228e-06
0.737406
-5.00553e-06
0.683705
-4.73758e-06
0.543759
-4.0355e-06
0.274939
-2.56744e-06
0.0478095
-8.40578e-07
0.00150208
-8.85931e-08
5.54525e-06
-1.88724e-09
1.71753e-09
-5.04929e-12
1.15408e-13
-1.55431e-15
-3.33067e-16
-2.22045e-16
-2.77556e-16
-5.55112e-16
5.55112e-17
-5.55112e-16
-5.55112e-17
-6.10623e-16
2.22045e-16
-5.55112e-16
0
-7.21645e-16
-1.11022e-16
-7.21645e-16
-1.66533e-16
-4.996e-16
7.21645e-16
-3.33067e-16
0
-3.33067e-16
2.77556e-16
-2.22045e-16
-5.55112e-16
1.11022e-16
-6.66134e-16
4.44089e-16
-3.33067e-16
0
-5.55112e-16
2.22045e-16
-2.22045e-16
1.11022e-16
-2.22045e-16
1.11022e-16
-1.11022e-16
1.11022e-16
-3.33067e-16
-2.22045e-16
-5.55112e-16
-3.33067e-16
-4.44089e-16
-3.33067e-16
-1.11022e-16
-3.33067e-16
0
-4.44089e-16
-1.11022e-16
-2.22045e-16
0
-4.44089e-16
1.11022e-16
-4.44089e-16
3.33067e-16
1.11022e-16
5.55112e-16
-2.22045e-16
0
-2.22045e-16
-2.22045e-16
-4.44089e-16
1.11022e-16
1.11022e-16
2.22045e-16
-3.33067e-16
0
-3.33067e-16
-1.11022e-16
-3.33067e-16
-1.11022e-16
-3.33067e-16
0
-5.55112e-16
0
-3.33067e-16
0
7.84706e-13
-2.22045e-16
1.7199e-09
5.55112e-16
4.47348e-07
4.84723e-13
2.00728e-05
2.97667e-11
0.000241304
4.77101e-10
0.00121135
3.0487e-09
0.00359613
1.10161e-08
0.00782931
2.81725e-08
0.0140686
5.77456e-08
0.022258
1.01732e-07
0.0321945
1.60713e-07
0.0435932
2.34027e-07
0.0561432
3.20146e-07
0.0695454
4.17073e-07
0.0835336
5.22675e-07
0.0978828
6.34903e-07
0.11241
7.51925e-07
0.126971
8.72177e-07
0.141453
9.94372e-07
0.155772
1.11747e-06
0.169863
1.24062e-06
0.183681
1.36318e-06
0.19719
1.48465e-06
0.210366
1.60477e-06
0.223192
1.72364e-06
0.235653
1.84174e-06
0.247738
1.95934e-06
0.259435
2.07599e-06
0.27073
2.19133e-06
0.2816
2.30471e-06
0.292017
2.41835e-06
0.301936
2.53693e-06
0.311296
2.6638e-06
0.320009
2.80048e-06
0.327965
2.9488e-06
0.33503
3.11172e-06
0.341064
3.29172e-06
0.345946
3.48873e-06
0.349614
3.69898e-06
0.352103
3.91219e-06
0.353569
4.11957e-06
0.354237
4.2929e-06
0.354475
4.46196e-06
0.354459
4.59167e-06
0.354041
4.65982e-06
0.353472
4.64962e-06
0.352949
4.61689e-06
0.352499
4.60007e-06
0.352117
4.60574e-06
0.351786
4.60502e-06
0.351487
4.59523e-06
0.351202
4.53873e-06
0.350928
4.54274e-06
0.35066
4.4393e-06
0.350393
4.48169e-06
0.350122
4.35532e-06
0.349844
4.38668e-06
0.349565
4.3325e-06
0.349287
4.2076e-06
0.349008
4.37944e-06
0.348726
3.96165e-06
0.34844
4.40575e-06
0.348153
3.77259e-06
0.347871
4.31426e-06
0.347595
3.60863e-06
0.347318
4.33188e-06
0.347038
3.08456e-06
0.346755
4.43719e-06
0.346477
3.26129e-06
0.346207
3.07012e-06
0.345938
4.17322e-06
0.345659
2.8916e-06
0.345367
2.67454e-06
0.345076
3.28149e-06
0.344796
3.02466e-06
0.344527
2.54864e-06
0.344259
1.57704e-06
0.343987
2.20261e-06
0.343719
1.5389e-06
0.34346
1.29247e-06
0.343196
6.57416e-07
0.342908
2.97804e-07
0.342586
-3.22409e-07
0.342231
-1.61078e-06
0.341896
-2.68989e-06
0.341814
-3.5514e-06
0.342146
-4.08002e-06
0.34365
-4.93087e-06
0.347791
-6.07057e-06
0.357049
-7.48857e-06
0.375351
-9.02782e-06
0.408061
-1.04034e-05
0.461132
-1.15166e-05
0.537584
-1.30153e-05
0.63022
-1.47216e-05
0.715539
-1.56199e-05
0.769859
-1.50502e-05
0.792044
-1.27779e-05
0.794037
-1.08584e-05
0.792786
-1.05731e-05
0.791222
-9.73313e-06
0.789115
-9.0366e-06
0.786705
-8.26217e-06
0.784596
-7.53107e-06
0.782857
-7.02979e-06
0.781303
-6.63029e-06
0.780003
-6.30356e-06
0.77889
-6.05297e-06
0.777845
-5.85161e-06
0.776789
-5.67295e-06
0.775691
-5.51031e-06
0.774541
-5.36569e-06
0.773332
-5.24548e-06
0.77206
-5.15435e-06
0.770723
-5.09249e-06
0.769256
-5.04911e-06
0.767361
-5.02326e-06
0.764115
-5.00104e-06
0.756788
-4.96308e-06
0.737406
-4.85404e-06
0.683706
-4.57116e-06
0.54376
-3.87227e-06
0.274941
-2.45338e-06
0.0478103
-8.00659e-07
0.00150212
-8.41645e-08
5.54549e-06
-1.78935e-09
1.71763e-09
-4.77857e-12
1.15241e-13
-1.9984e-15
-3.88578e-16
-2.77556e-16
-3.33067e-16
-3.88578e-16
1.11022e-16
-5.55112e-17
1.11022e-16
-2.22045e-16
1.66533e-16
-3.88578e-16
2.22045e-16
-1.66533e-16
1.11022e-16
-4.996e-16
2.22045e-16
-3.88578e-16
6.66134e-16
-1.66533e-16
3.88578e-16
-2.77556e-16
-2.77556e-16
-1.66533e-16
-1.66533e-16
0
-2.22045e-16
0
-5.55112e-16
0
-7.77156e-16
5.55112e-16
-2.22045e-16
3.33067e-16
-4.44089e-16
-3.33067e-16
-4.44089e-16
1.11022e-16
0
-2.22045e-16
-1.11022e-16
-2.22045e-16
1.11022e-16
-2.22045e-16
3.33067e-16
-4.44089e-16
4.44089e-16
-4.44089e-16
3.33067e-16
-4.44089e-16
0
-4.44089e-16
0
-2.22045e-16
1.11022e-16
-3.33067e-16
0
-3.33067e-16
1.11022e-16
-2.22045e-16
3.33067e-16
-2.22045e-16
2.22045e-16
-2.22045e-16
2.22045e-16
-3.33067e-16
3.33067e-16
-3.33067e-16
-1.11022e-16
-3.33067e-16
-1.11022e-16
-3.33067e-16
0
-5.55112e-16
-1.11022e-16
-2.22045e-16
-1.11022e-16
7.84817e-13
1.11022e-16
1.71993e-09
6.66134e-16
4.47355e-07
3.71037e-13
2.0073e-05
2.31952e-11
0.000241306
3.78042e-10
0.00121136
2.46276e-09
0.00359614
9.07575e-09
0.00782934
2.36343e-08
0.0140686
4.92166e-08
0.022258
8.79036e-08
0.0321945
1.4054e-07
0.0435933
2.06821e-07
0.0561433
2.85577e-07
0.0695455
3.75116e-07
0.0835337
4.73533e-07
0.0978829
5.78932e-07
0.11241
6.8957e-07
0.126971
8.0392e-07
0.141454
9.20693e-07
0.155772
1.03883e-06
0.169863
1.15746e-06
0.183681
1.27591e-06
0.19719
1.39366e-06
0.210366
1.51042e-06
0.223192
1.62615e-06
0.235653
1.74111e-06
0.247738
1.85563e-06
0.259435
1.96976e-06
0.27073
2.08319e-06
0.2816
2.19577e-06
0.292017
2.30836e-06
0.301937
2.42435e-06
0.311296
2.54782e-06
0.320009
2.68179e-06
0.327965
2.82835e-06
0.33503
2.98967e-06
0.341064
3.16743e-06
0.345946
3.36106e-06
0.349614
3.56649e-06
0.352103
3.7738e-06
0.353569
3.9743e-06
0.354237
4.14375e-06
0.354475
4.30845e-06
0.354459
4.44578e-06
0.354041
4.52386e-06
0.353472
4.5365e-06
0.352949
4.51447e-06
0.352499
4.49581e-06
0.352117
4.4877e-06
0.351786
4.48338e-06
0.351487
4.4798e-06
0.351202
4.42428e-06
0.350928
4.43047e-06
0.35066
4.32386e-06
0.350393
4.36309e-06
0.350122
4.23957e-06
0.349844
4.2525e-06
0.349565
4.2116e-06
0.349286
4.07373e-06
0.349008
4.23286e-06
0.348726
3.84335e-06
0.34844
4.24328e-06
0.348153
3.62124e-06
0.347871
4.18327e-06
0.347595
3.41088e-06
0.347318
4.20093e-06
0.347038
2.88437e-06
0.346755
4.26519e-06
0.346477
3.06531e-06
0.346207
2.87443e-06
0.345938
3.96651e-06
0.345659
2.66426e-06
0.345367
2.44105e-06
0.345076
3.01917e-06
0.344796
2.74898e-06
0.344527
2.23486e-06
0.344259
1.28661e-06
0.343987
1.89037e-06
0.343719
1.26419e-06
0.343459
9.96503e-07
0.343195
3.54235e-07
0.342907
-2.69556e-08
0.342585
-6.33863e-07
0.34223
-1.83644e-06
0.341895
-2.83861e-06
0.341813
-3.62975e-06
0.342145
-4.09579e-06
0.343649
-4.85978e-06
0.34779
-5.85766e-06
0.357048
-7.02945e-06
0.37535
-8.23171e-06
0.408061
-9.25482e-06
0.461132
-1.0129e-05
0.537585
-1.10955e-05
0.630221
-1.22166e-05
0.71554
-1.28884e-05
0.769861
-1.25831e-05
0.792046
-1.11991e-05
0.794039
-1.01502e-05
0.792787
-9.93886e-06
0.791223
-9.24838e-06
0.789116
-8.66491e-06
0.786706
-7.99991e-06
0.784597
-7.35747e-06
0.782857
-6.90653e-06
0.781304
-6.53931e-06
0.780004
-6.23054e-06
0.77889
-5.98906e-06
0.777845
-5.79273e-06
0.776789
-5.61763e-06
0.775691
-5.45615e-06
0.774541
-5.31124e-06
0.773332
-5.18903e-06
0.77206
-5.09266e-06
0.770724
-5.02013e-06
0.769256
-4.96779e-06
0.767361
-4.92819e-06
0.764115
-4.88726e-06
0.756788
-4.81957e-06
0.737406
-4.68569e-06
0.683706
-4.38826e-06
0.543762
-3.70024e-06
0.274943
-2.33622e-06
0.047811
-7.60311e-07
0.00150216
-7.97417e-08
5.54572e-06
-1.69218e-09
1.71773e-09
-4.51289e-12
1.15463e-13
-1.66533e-15
-4.996e-16
-3.33067e-16
-3.33067e-16
-6.66134e-16
-5.55112e-17
-7.77156e-16
-3.33067e-16
-7.77156e-16
2.77556e-16
-4.44089e-16
-2.77556e-16
-3.88578e-16
-5.55112e-17
-3.33067e-16
3.33067e-16
0
4.44089e-16
0
4.44089e-16
-3.88578e-16
-2.22045e-16
-6.10623e-16
-3.33067e-16
0
-4.44089e-16
2.22045e-16
-2.22045e-16
1.11022e-16
-3.33067e-16
5.55112e-16
-2.22045e-16
1.11022e-16
-2.22045e-16
3.33067e-16
-1.11022e-16
1.11022e-16
-3.33067e-16
-2.22045e-16
-1.11022e-16
0
-1.11022e-16
-2.22045e-16
0
-7.77156e-16
0
-8.88178e-16
0
-3.33067e-16
1.11022e-16
-4.44089e-16
-1.11022e-16
-3.33067e-16
0
-3.33067e-16
0
-4.44089e-16
2.22045e-16
-2.22045e-16
0
-3.33067e-16
-1.11022e-16
-4.44089e-16
-1.11022e-16
-3.33067e-16
1.11022e-16
-4.44089e-16
0