/*--------------------------------*- C++ -*----------------------------------*\
  =========                 |
  \\      /  F ield         | OpenFOAM: The Open Source CFD Toolbox
   \\    /   O peration     | Website:  https://openfoam.org
    \\  /    A nd           | Version:  13
     \\/     M anipulation  |
\*---------------------------------------------------------------------------*/
FoamFile
{
    format      ascii;
    class       volScalarField;
    location    "0.001";
    object      Qdot;
}
// * * * * * * * * * * * * * * * * * * * * * * * * * * * * * * * * * * * * * //

dimensions      [1 -1 -3 0 0 0 0];

internalField   nonuniform List<scalar> 
33334
(
4.17664e+08
4.17664e+08
4.17664e+08
4.17664e+08
4.17664e+08
4.17664e+08
4.17664e+08
4.17664e+08
4.17664e+08
4.17664e+08
4.17664e+08
4.17664e+08
4.17664e+08
4.17664e+08
4.17664e+08
4.17664e+08
4.17664e+08
4.17664e+08
4.17664e+08
4.17664e+08
4.17664e+08
4.17664e+08
4.17664e+08
4.17664e+08
4.17664e+08
4.17664e+08
4.17664e+08
4.17664e+08
4.17664e+08
4.17657e+08
4.17518e+08
4.1662e+08
4.1373e+08
4.07665e+08
3.9777e+08
3.83952e+08
3.66574e+08
3.46317e+08
3.24009e+08
3.00497e+08
2.76545e+08
2.52793e+08
2.29738e+08
2.07738e+08
1.87035e+08
1.67771e+08
1.50012e+08
1.33765e+08
1.18996e+08
1.05643e+08
9.36256e+07
8.28521e+07
7.32278e+07
6.46575e+07
5.70476e+07
5.03137e+07
4.43745e+07
3.91585e+07
3.46022e+07
3.06506e+07
2.72568e+07
2.43805e+07
2.19853e+07
2.00354e+07
1.84907e+07
1.73024e+07
1.64114e+07
1.57479e+07
1.52351e+07
1.48088e+07
1.44542e+07
1.41804e+07
1.3932e+07
1.36804e+07
1.34228e+07
1.3164e+07
1.29082e+07
1.26578e+07
1.2414e+07
1.21771e+07
1.19477e+07
1.17263e+07
1.15131e+07
1.13076e+07
1.11089e+07
1.09166e+07
1.07305e+07
1.05508e+07
1.03773e+07
1.02089e+07
1.00451e+07
9.88572e+06
9.73135e+06
9.58211e+06
9.43735e+06
9.2961e+06
9.1582e+06
9.02447e+06
8.89577e+06
8.77184e+06
8.65123e+06
8.53265e+06
8.41582e+06
8.30083e+06
8.18729e+06
8.07508e+06
7.96714e+06
7.86911e+06
7.78439e+06
7.70948e+06
7.63242e+06
7.52277e+06
7.31143e+06
6.85553e+06
5.91959e+06
4.32739e+06
2.33943e+06
766818
118240
6761.64
146.597
2.3101
0.0855335
0.0159915
0.00930631
0.00855952
0.0085049
0.00863733
0.0088756
0.00914358
0.00917851
0.00915621
0.00906299
0.00885682
0.00870939
0.00856524
0.00844012
0.0083504
0.00830198
0.00820526
0.00814783
0.00807436
0.00794638
0.00774204
0.00735267
0.00651221
0.00453451
0.0016274
0.000108267
1.6657e-06
1.45749e-07
1.11732e-07
1.11226e-07
1.11225e-07
1.11225e-07
1.11225e-07
1.11225e-07
1.11225e-07
1.11225e-07
1.11225e-07
1.11225e-07
1.11225e-07
1.11225e-07
1.11225e-07
1.11225e-07
1.11225e-07
4.17664e+08
4.17664e+08
4.17664e+08
4.17664e+08
4.17664e+08
4.17664e+08
4.17664e+08
4.17664e+08
4.17664e+08
4.17664e+08
4.17664e+08
4.17664e+08
4.17664e+08
4.17664e+08
4.17664e+08
4.17664e+08
4.17664e+08
4.17664e+08
4.17664e+08
4.17664e+08
4.17664e+08
4.17664e+08
4.17664e+08
4.17664e+08
4.17664e+08
4.17664e+08
4.17664e+08
4.17664e+08
4.17664e+08
4.17657e+08
4.17518e+08
4.1662e+08
4.1373e+08
4.07665e+08
3.9777e+08
3.83952e+08
3.66574e+08
3.46316e+08
3.24009e+08
3.00497e+08
2.76545e+08
2.52793e+08
2.29738e+08
2.07738e+08
1.87035e+08
1.67771e+08
1.50012e+08
1.33765e+08
1.18996e+08
1.05643e+08
9.36254e+07
8.28519e+07
7.32276e+07
6.46573e+07
5.70473e+07
5.03134e+07
4.43742e+07
3.91583e+07
3.46019e+07
3.06503e+07
2.72566e+07
2.43802e+07
2.1985e+07
2.00351e+07
1.84904e+07
1.73021e+07
1.64111e+07
1.57476e+07
1.52348e+07
1.48087e+07
1.44539e+07
1.41801e+07
1.39317e+07
1.36801e+07
1.34226e+07
1.31638e+07
1.2908e+07
1.26576e+07
1.24137e+07
1.21769e+07
1.19475e+07
1.17261e+07
1.15129e+07
1.13073e+07
1.11087e+07
1.09164e+07
1.07303e+07
1.05506e+07
1.0377e+07
1.02087e+07
1.00449e+07
9.8855e+06
9.73114e+06
9.5819e+06
9.43715e+06
9.2959e+06
9.158e+06
9.02427e+06
8.89558e+06
8.77165e+06
8.65104e+06
8.53247e+06
8.41564e+06
8.30066e+06
8.18711e+06
8.07491e+06
7.96696e+06
7.86893e+06
7.7842e+06
7.70929e+06
7.63225e+06
7.52259e+06
7.31148e+06
6.85588e+06
5.92043e+06
4.32866e+06
2.34064e+06
767437
118371
6770.63
146.791
2.31246
0.0855846
0.0159931
0.00930605
0.00855886
0.00850416
0.00863658
0.00887483
0.00914285
0.00917784
0.00915556
0.00906239
0.00885625
0.00870884
0.00856471
0.0084396
0.00834991
0.00830151
0.00820481
0.00814741
0.00807396
0.00794602
0.00774173
0.00735242
0.00651203
0.00453442
0.0016274
0.00010827
1.66575e-06
1.4575e-07
1.11732e-07
1.11226e-07
1.11225e-07
1.11225e-07
1.11225e-07
1.11225e-07
1.11225e-07
1.11225e-07
1.11225e-07
1.11225e-07
1.11225e-07
1.11225e-07
1.11225e-07
1.11225e-07
1.11225e-07
4.17664e+08
4.17664e+08
4.17664e+08
4.17664e+08
4.17664e+08
4.17664e+08
4.17664e+08
4.17664e+08
4.17664e+08
4.17664e+08
4.17664e+08
4.17664e+08
4.17664e+08
4.17664e+08
4.17664e+08
4.17664e+08
4.17664e+08
4.17664e+08
4.17664e+08
4.17664e+08
4.17664e+08
4.17664e+08
4.17664e+08
4.17664e+08
4.17664e+08
4.17664e+08
4.17664e+08
4.17664e+08
4.17664e+08
4.17657e+08
4.17518e+08
4.1662e+08
4.1373e+08
4.07665e+08
3.9777e+08
3.83951e+08
3.66574e+08
3.46316e+08
3.24009e+08
3.00496e+08
2.76545e+08
2.52793e+08
2.29737e+08
2.07738e+08
1.87035e+08
1.67771e+08
1.50012e+08
1.33765e+08
1.18996e+08
1.05643e+08
9.36251e+07
8.28517e+07
7.32273e+07
6.46571e+07
5.70471e+07
5.03132e+07
4.4374e+07
3.9158e+07
3.46017e+07
3.06501e+07
2.72563e+07
2.438e+07
2.19848e+07
2.00349e+07
1.84901e+07
1.73019e+07
1.64108e+07
1.57473e+07
1.52345e+07
1.48085e+07
1.44537e+07
1.41797e+07
1.39314e+07
1.36798e+07
1.34223e+07
1.31634e+07
1.29076e+07
1.26573e+07
1.24134e+07
1.21765e+07
1.19472e+07
1.17258e+07
1.15125e+07
1.1307e+07
1.11084e+07
1.0916e+07
1.07299e+07
1.05503e+07
1.03767e+07
1.02084e+07
1.00445e+07
9.88516e+06
9.73081e+06
9.58157e+06
9.43682e+06
9.29557e+06
9.15767e+06
9.02394e+06
8.89525e+06
8.77132e+06
8.65072e+06
8.53214e+06
8.41532e+06
8.30035e+06
8.18681e+06
8.0746e+06
7.96664e+06
7.8686e+06
7.78388e+06
7.709e+06
7.63196e+06
7.52231e+06
7.31138e+06
6.85607e+06
5.92115e+06
4.32997e+06
2.34204e+06
768219
118554
6784.5
147.124
2.31673
0.0856553
0.015998
0.00930578
0.00855802
0.00850325
0.00863559
0.00887382
0.00914188
0.00917695
0.0091547
0.00906159
0.00885552
0.00870816
0.00856407
0.008439
0.00834934
0.00830098
0.00820432
0.00814696
0.00807357
0.00794568
0.00774145
0.00735221
0.0065119
0.00453438
0.00162741
0.000108274
1.6658e-06
1.45751e-07
1.11732e-07
1.11226e-07
1.11225e-07
1.11225e-07
1.11225e-07
1.11225e-07
1.11225e-07
1.11225e-07
1.11225e-07
1.11225e-07
1.11225e-07
1.11225e-07
1.11225e-07
1.11225e-07
1.11225e-07
4.17664e+08
4.17664e+08
4.17664e+08
4.17664e+08
4.17664e+08
4.17664e+08
4.17664e+08
4.17664e+08
4.17664e+08
4.17664e+08
4.17664e+08
4.17664e+08
4.17664e+08
4.17664e+08
4.17664e+08
4.17664e+08
4.17664e+08
4.17664e+08
4.17664e+08
4.17664e+08
4.17664e+08
4.17664e+08
4.17664e+08
4.17664e+08
4.17664e+08
4.17664e+08
4.17664e+08
4.17664e+08
4.17664e+08
4.17657e+08
4.17518e+08
4.1662e+08
4.1373e+08
4.07665e+08
3.9777e+08
3.83951e+08
3.66574e+08
3.46316e+08
3.24009e+08
3.00496e+08
2.76545e+08
2.52793e+08
2.29737e+08
2.07737e+08
1.87034e+08
1.67771e+08
1.50011e+08
1.33764e+08
1.18996e+08
1.05643e+08
9.36249e+07
8.28515e+07
7.32272e+07
6.46569e+07
5.70469e+07
5.0313e+07
4.43738e+07
3.91579e+07
3.46015e+07
3.065e+07
2.72562e+07
2.43798e+07
2.19846e+07
2.00347e+07
1.849e+07
1.73017e+07
1.64106e+07
1.57472e+07
1.52343e+07
1.48083e+07
1.44536e+07
1.41796e+07
1.39312e+07
1.36797e+07
1.34221e+07
1.31632e+07
1.29074e+07
1.26571e+07
1.24132e+07
1.21763e+07
1.19469e+07
1.17255e+07
1.15123e+07
1.13068e+07
1.11081e+07
1.09158e+07
1.07297e+07
1.055e+07
1.03765e+07
1.02081e+07
1.00443e+07
9.88492e+06
9.73055e+06
9.58132e+06
9.43656e+06
9.29532e+06
9.15741e+06
9.02368e+06
8.89499e+06
8.77106e+06
8.65046e+06
8.53188e+06
8.41505e+06
8.30008e+06
8.18655e+06
8.07435e+06
7.96639e+06
7.86833e+06
7.78359e+06
7.7087e+06
7.6317e+06
7.52208e+06
7.31126e+06
6.85619e+06
5.92169e+06
4.33094e+06
2.34306e+06
768798
118693
6795.32
147.385
2.32019
0.0857322
0.0160026
0.00930571
0.00855748
0.00850268
0.00863498
0.00887316
0.00914126
0.00917639
0.00915418
0.00906111
0.00885509
0.00870779
0.00856373
0.0084387
0.00834907
0.00830074
0.00820411
0.00814679
0.00807342
0.00794557
0.00774137
0.00735216
0.00651189
0.0045344
0.00162743
0.000108277
1.66585e-06
1.45752e-07
1.11732e-07
1.11226e-07
1.11225e-07
1.11225e-07
1.11225e-07
1.11225e-07
1.11225e-07
1.11225e-07
1.11225e-07
1.11225e-07
1.11225e-07
1.11225e-07
1.11225e-07
1.11225e-07
1.11225e-07
4.17664e+08
4.17664e+08
4.17664e+08
4.17664e+08
4.17664e+08
4.17664e+08
4.17664e+08
4.17664e+08
4.17664e+08
4.17664e+08
4.17664e+08
4.17664e+08
4.17664e+08
4.17664e+08
4.17664e+08
4.17664e+08
4.17664e+08
4.17664e+08
4.17664e+08
4.17664e+08
4.17664e+08
4.17664e+08
4.17664e+08
4.17664e+08
4.17664e+08
4.17664e+08
4.17664e+08
4.17664e+08
4.17664e+08
4.17657e+08
4.17518e+08
4.1662e+08
4.1373e+08
4.07665e+08
3.9777e+08
3.83951e+08
3.66574e+08
3.46316e+08
3.24008e+08
3.00496e+08
2.76544e+08
2.52793e+08
2.29737e+08
2.07737e+08
1.87034e+08
1.6777e+08
1.50011e+08
1.33764e+08
1.18995e+08
1.05643e+08
9.36248e+07
8.28514e+07
7.32271e+07
6.46568e+07
5.70469e+07
5.0313e+07
4.43738e+07
3.91578e+07
3.46015e+07
3.06499e+07
2.72561e+07
2.43798e+07
2.19846e+07
2.00347e+07
1.84899e+07
1.73017e+07
1.64106e+07
1.57471e+07
1.52343e+07
1.48083e+07
1.44536e+07
1.41795e+07
1.39312e+07
1.36796e+07
1.3422e+07
1.31632e+07
1.29074e+07
1.2657e+07
1.24131e+07
1.21762e+07
1.19469e+07
1.17255e+07
1.15122e+07
1.13067e+07
1.1108e+07
1.09157e+07
1.07296e+07
1.05499e+07
1.03763e+07
1.0208e+07
1.00442e+07
9.8848e+06
9.73043e+06
9.58119e+06
9.43643e+06
9.29519e+06
9.15729e+06
9.02355e+06
8.89485e+06
8.77093e+06
8.65032e+06
8.53174e+06
8.41491e+06
8.29994e+06
8.1864e+06
8.0742e+06
7.96625e+06
7.86819e+06
7.78343e+06
7.70853e+06
7.63154e+06
7.52194e+06
7.31117e+06
6.85621e+06
5.92187e+06
4.33129e+06
2.34346e+06
769035
118752
6800.11
147.506
2.32184
0.0857687
0.016005
0.00930573
0.00855726
0.00850245
0.00863472
0.0088729
0.00914101
0.00917618
0.00915398
0.00906094
0.00885495
0.00870767
0.00856363
0.00843862
0.008349
0.00830069
0.00820407
0.00814675
0.0080734
0.00794555
0.00774136
0.00735217
0.0065119
0.00453443
0.00162745
0.000108281
1.6659e-06
1.45753e-07
1.11732e-07
1.11226e-07
1.11225e-07
1.11225e-07
1.11225e-07
1.11225e-07
1.11225e-07
1.11225e-07
1.11225e-07
1.11225e-07
1.11225e-07
1.11225e-07
1.11225e-07
1.11225e-07
1.11225e-07
4.17664e+08
4.17664e+08
4.17664e+08
4.17664e+08
4.17664e+08
4.17664e+08
4.17664e+08
4.17664e+08
4.17664e+08
4.17664e+08
4.17664e+08
4.17664e+08
4.17664e+08
4.17664e+08
4.17664e+08
4.17664e+08
4.17664e+08
4.17664e+08
4.17664e+08
4.17664e+08
4.17664e+08
4.17664e+08
4.17664e+08
4.17664e+08
4.17664e+08
4.17664e+08
4.17664e+08
4.17664e+08
4.17664e+08
4.17657e+08
4.17518e+08
4.1662e+08
4.1373e+08
4.07664e+08
3.9777e+08
3.83951e+08
3.66573e+08
3.46316e+08
3.24008e+08
3.00496e+08
2.76544e+08
2.52792e+08
2.29737e+08
2.07737e+08
1.87034e+08
1.6777e+08
1.50011e+08
1.33764e+08
1.18995e+08
1.05642e+08
9.36247e+07
8.28513e+07
7.3227e+07
6.46568e+07
5.70468e+07
5.03129e+07
4.43737e+07
3.91577e+07
3.46014e+07
3.06498e+07
2.72561e+07
2.43797e+07
2.19845e+07
2.00346e+07
1.84899e+07
1.73016e+07
1.64105e+07
1.57471e+07
1.52342e+07
1.48082e+07
1.44536e+07
1.41796e+07
1.39312e+07
1.36796e+07
1.3422e+07
1.31632e+07
1.29074e+07
1.2657e+07
1.24131e+07
1.21762e+07
1.19468e+07
1.17254e+07
1.15122e+07
1.13067e+07
1.1108e+07
1.09157e+07
1.07296e+07
1.05499e+07
1.03763e+07
1.0208e+07
1.00441e+07
9.88476e+06
9.73039e+06
9.58115e+06
9.43639e+06
9.29514e+06
9.15724e+06
9.0235e+06
8.8948e+06
8.77088e+06
8.65027e+06
8.53169e+06
8.41486e+06
8.29988e+06
8.18634e+06
8.07414e+06
7.96618e+06
7.86813e+06
7.78337e+06
7.70847e+06
7.63147e+06
7.52187e+06
7.31112e+06
6.85619e+06
5.92189e+06
4.33136e+06
2.34355e+06
769091
118766
6801.32
147.539
2.32232
0.0857817
0.016006
0.00930578
0.00855722
0.0085024
0.00863467
0.00887284
0.00914096
0.00917614
0.00915395
0.00906091
0.00885493
0.00870766
0.00856362
0.00843861
0.008349
0.00830068
0.00820407
0.00814675
0.0080734
0.00794555
0.00774137
0.00735218
0.00651192
0.00453445
0.00162748
0.000108284
1.66595e-06
1.45754e-07
1.11732e-07
1.11226e-07
1.11225e-07
1.11225e-07
1.11225e-07
1.11225e-07
1.11225e-07
1.11225e-07
1.11225e-07
1.11225e-07
1.11225e-07
1.11225e-07
1.11225e-07
1.11225e-07
1.11225e-07
4.17664e+08
4.17664e+08
4.17664e+08
4.17664e+08
4.17664e+08
4.17664e+08
4.17664e+08
4.17664e+08
4.17664e+08
4.17664e+08
4.17664e+08
4.17664e+08
4.17664e+08
4.17664e+08
4.17664e+08
4.17664e+08
4.17664e+08
4.17664e+08
4.17664e+08
4.17664e+08
4.17664e+08
4.17664e+08
4.17664e+08
4.17664e+08
4.17664e+08
4.17664e+08
4.17664e+08
4.17664e+08
4.17664e+08
4.17657e+08
4.17518e+08
4.1662e+08
4.1373e+08
4.07664e+08
3.9777e+08
3.83951e+08
3.66573e+08
3.46315e+08
3.24008e+08
3.00495e+08
2.76544e+08
2.52792e+08
2.29736e+08
2.07737e+08
1.87034e+08
1.6777e+08
1.50011e+08
1.33764e+08
1.18995e+08
1.05642e+08
9.36246e+07
8.28512e+07
7.32269e+07
6.46567e+07
5.70467e+07
5.03128e+07
4.43737e+07
3.91577e+07
3.46014e+07
3.06498e+07
2.7256e+07
2.43797e+07
2.19845e+07
2.00346e+07
1.84898e+07
1.73016e+07
1.64105e+07
1.5747e+07
1.52342e+07
1.48082e+07
1.44536e+07
1.41796e+07
1.39312e+07
1.36796e+07
1.3422e+07
1.31632e+07
1.29074e+07
1.2657e+07
1.24131e+07
1.21762e+07
1.19468e+07
1.17254e+07
1.15122e+07
1.13067e+07
1.1108e+07
1.09157e+07
1.07296e+07
1.05499e+07
1.03763e+07
1.0208e+07
1.00441e+07
9.88476e+06
9.73038e+06
9.58115e+06
9.43638e+06
9.29513e+06
9.15723e+06
9.02349e+06
8.89479e+06
8.77086e+06
8.65026e+06
8.53168e+06
8.41484e+06
8.29987e+06
8.18632e+06
8.07412e+06
7.96616e+06
7.86811e+06
7.78336e+06
7.70845e+06
7.63145e+06
7.52185e+06
7.3111e+06
6.85616e+06
5.92188e+06
4.33136e+06
2.34355e+06
769093
118767
6801.45
147.545
2.32246
0.0857857
0.0160065
0.00930584
0.00855724
0.00850241
0.00863467
0.00887284
0.00914097
0.00917615
0.00915395
0.00906092
0.00885494
0.00870767
0.00856363
0.00843862
0.00834901
0.00830069
0.00820407
0.00814675
0.0080734
0.00794556
0.00774137
0.00735219
0.00651193
0.00453448
0.0016275
0.000108287
1.66599e-06
1.45755e-07
1.11732e-07
1.11226e-07
1.11225e-07
1.11225e-07
1.11225e-07
1.11225e-07
1.11225e-07
1.11225e-07
1.11225e-07
1.11225e-07
1.11225e-07
1.11225e-07
1.11225e-07
1.11225e-07
1.11225e-07
4.17664e+08
4.17664e+08
4.17664e+08
4.17664e+08
4.17664e+08
4.17664e+08
4.17664e+08
4.17664e+08
4.17664e+08
4.17664e+08
4.17664e+08
4.17664e+08
4.17664e+08
4.17664e+08
4.17664e+08
4.17664e+08
4.17664e+08
4.17664e+08
4.17664e+08
4.17664e+08
4.17664e+08
4.17664e+08
4.17664e+08
4.17664e+08
4.17664e+08
4.17664e+08
4.17664e+08
4.17664e+08
4.17664e+08
4.17657e+08
4.17518e+08
4.1662e+08
4.1373e+08
4.07664e+08
3.9777e+08
3.83951e+08
3.66573e+08
3.46315e+08
3.24008e+08
3.00495e+08
2.76544e+08
2.52792e+08
2.29736e+08
2.07737e+08
1.87034e+08
1.6777e+08
1.50011e+08
1.33764e+08
1.18995e+08
1.05642e+08
9.36245e+07
8.28511e+07
7.32268e+07
6.46566e+07
5.70467e+07
5.03128e+07
4.43736e+07
3.91576e+07
3.46013e+07
3.06498e+07
2.7256e+07
2.43796e+07
2.19845e+07
2.00345e+07
1.84898e+07
1.73015e+07
1.64105e+07
1.5747e+07
1.52342e+07
1.48082e+07
1.44536e+07
1.41796e+07
1.39312e+07
1.36796e+07
1.3422e+07
1.31632e+07
1.29074e+07
1.2657e+07
1.24131e+07
1.21762e+07
1.19468e+07
1.17254e+07
1.15122e+07
1.13067e+07
1.1108e+07
1.09157e+07
1.07296e+07
1.05499e+07
1.03763e+07
1.0208e+07
1.00441e+07
9.88476e+06
9.73038e+06
9.58115e+06
9.43638e+06
9.29513e+06
9.15723e+06
9.02349e+06
8.89479e+06
8.77086e+06
8.65025e+06
8.53168e+06
8.41484e+06
8.29987e+06
8.18633e+06
8.07413e+06
7.96616e+06
7.86811e+06
7.78335e+06
7.70845e+06
7.63145e+06
7.52184e+06
7.31109e+06
6.85614e+06
5.92184e+06
4.33132e+06
2.34352e+06
769078
118765
6801.32
147.544
2.32247
0.0857871
0.0160067
0.00930589
0.00855726
0.00850243
0.00863469
0.00887286
0.00914099
0.00917617
0.00915397
0.00906094
0.00885496
0.00870769
0.00856365
0.00843863
0.00834902
0.0083007
0.00820408
0.00814676
0.0080734
0.00794556
0.00774138
0.00735219
0.00651195
0.0045345
0.00162752
0.000108291
1.66603e-06
1.45755e-07
1.11732e-07
1.11226e-07
1.11225e-07
1.11225e-07
1.11225e-07
1.11225e-07
1.11225e-07
1.11225e-07
1.11225e-07
1.11225e-07
1.11225e-07
1.11225e-07
1.11225e-07
1.11225e-07
1.11225e-07
4.17664e+08
4.17664e+08
4.17664e+08
4.17664e+08
4.17664e+08
4.17664e+08
4.17664e+08
4.17664e+08
4.17664e+08
4.17664e+08
4.17664e+08
4.17664e+08
4.17664e+08
4.17664e+08
4.17664e+08
4.17664e+08
4.17664e+08
4.17664e+08
4.17664e+08
4.17664e+08
4.17664e+08
4.17664e+08
4.17664e+08
4.17664e+08
4.17664e+08
4.17664e+08
4.17664e+08
4.17664e+08
4.17664e+08
4.17657e+08
4.17518e+08
4.1662e+08
4.1373e+08
4.07664e+08
3.9777e+08
3.83951e+08
3.66573e+08
3.46315e+08
3.24008e+08
3.00495e+08
2.76544e+08
2.52792e+08
2.29736e+08
2.07736e+08
1.87034e+08
1.6777e+08
1.50011e+08
1.33764e+08
1.18995e+08
1.05642e+08
9.36244e+07
8.2851e+07
7.32268e+07
6.46565e+07
5.70466e+07
5.03127e+07
4.43735e+07
3.91576e+07
3.46013e+07
3.06497e+07
2.72559e+07
2.43796e+07
2.19844e+07
2.00345e+07
1.84898e+07
1.73015e+07
1.64104e+07
1.5747e+07
1.52342e+07
1.48082e+07
1.44536e+07
1.41796e+07
1.39312e+07
1.36796e+07
1.3422e+07
1.31632e+07
1.29074e+07
1.2657e+07
1.24131e+07
1.21762e+07
1.19468e+07
1.17254e+07
1.15122e+07
1.13067e+07
1.1108e+07
1.09157e+07
1.07296e+07
1.05499e+07
1.03763e+07
1.0208e+07
1.00441e+07
9.88476e+06
9.73039e+06
9.58115e+06
9.43638e+06
9.29514e+06
9.15724e+06
9.02349e+06
8.89479e+06
8.77086e+06
8.65026e+06
8.53168e+06
8.41485e+06
8.29988e+06
8.18633e+06
8.07413e+06
7.96617e+06
7.86811e+06
7.78336e+06
7.70846e+06
7.63146e+06
7.52184e+06
7.31109e+06
6.85613e+06
5.92181e+06
4.33126e+06
2.34347e+06
769050
118759
6800.96
147.538
2.32243
0.0857871
0.0160068
0.00930593
0.00855729
0.00850246
0.00863472
0.00887289
0.00914101
0.0091762
0.009154
0.00906097
0.00885499
0.00870771
0.00856367
0.00843865
0.00834903
0.00830071
0.00820409
0.00814676
0.00807341
0.00794557
0.00774139
0.00735221
0.00651196
0.00453452
0.00162754
0.000108294
1.66608e-06
1.45756e-07
1.11732e-07
1.11226e-07
1.11225e-07
1.11225e-07
1.11225e-07
1.11225e-07
1.11225e-07
1.11225e-07
1.11225e-07
1.11225e-07
1.11225e-07
1.11225e-07
1.11225e-07
1.11225e-07
1.11225e-07
4.17664e+08
4.17664e+08
4.17664e+08
4.17664e+08
4.17664e+08
4.17664e+08
4.17664e+08
4.17664e+08
4.17664e+08
4.17664e+08
4.17664e+08
4.17664e+08
4.17664e+08
4.17664e+08
4.17664e+08
4.17664e+08
4.17664e+08
4.17664e+08
4.17664e+08
4.17664e+08
4.17664e+08
4.17664e+08
4.17664e+08
4.17664e+08
4.17664e+08
4.17664e+08
4.17664e+08
4.17664e+08
4.17664e+08
4.17657e+08
4.17518e+08
4.1662e+08
4.1373e+08
4.07664e+08
3.9777e+08
3.83951e+08
3.66573e+08
3.46315e+08
3.24007e+08
3.00495e+08
2.76543e+08
2.52792e+08
2.29736e+08
2.07736e+08
1.87033e+08
1.6777e+08
1.5001e+08
1.33764e+08
1.18995e+08
1.05642e+08
9.36243e+07
8.2851e+07
7.32267e+07
6.46565e+07
5.70465e+07
5.03127e+07
4.43735e+07
3.91575e+07
3.46012e+07
3.06497e+07
2.72559e+07
2.43795e+07
2.19844e+07
2.00345e+07
1.84897e+07
1.73015e+07
1.64104e+07
1.5747e+07
1.52342e+07
1.48082e+07
1.44535e+07
1.41796e+07
1.39312e+07
1.36796e+07
1.3422e+07
1.31632e+07
1.29074e+07
1.2657e+07
1.24131e+07
1.21762e+07
1.19469e+07
1.17254e+07
1.15122e+07
1.13067e+07
1.1108e+07
1.09157e+07
1.07296e+07
1.05499e+07
1.03763e+07
1.0208e+07
1.00441e+07
9.88476e+06
9.73039e+06
9.58115e+06
9.43638e+06
9.29514e+06
9.15724e+06
9.0235e+06
8.8948e+06
8.77087e+06
8.65026e+06
8.53168e+06
8.41485e+06
8.29988e+06
8.18633e+06
8.07413e+06
7.96617e+06
7.86812e+06
7.78337e+06
7.70846e+06
7.63147e+06
7.52185e+06
7.31109e+06
6.85612e+06
5.92177e+06
4.33121e+06
2.34341e+06
769020
118752
6800.51
147.529
2.32232
0.0857865
0.0160069
0.00930597
0.00855732
0.00850249
0.00863475
0.00887292
0.00914104
0.00917623
0.00915403
0.00906099
0.00885501
0.00870773
0.00856369
0.00843867
0.00834905
0.00830072
0.0082041
0.00814677
0.00807342
0.00794558
0.0077414
0.00735222
0.00651198
0.00453455
0.00162756
0.000108296
1.66612e-06
1.45757e-07
1.11732e-07
1.11226e-07
1.11225e-07
1.11225e-07
1.11225e-07
1.11225e-07
1.11225e-07
1.11225e-07
1.11225e-07
1.11225e-07
1.11225e-07
1.11225e-07
1.11225e-07
1.11225e-07
1.11225e-07
4.17664e+08
4.17664e+08
4.17664e+08
4.17664e+08
4.17664e+08
4.17664e+08
4.17664e+08
4.17664e+08
4.17664e+08
4.17664e+08
4.17664e+08
4.17664e+08
4.17664e+08
4.17664e+08
4.17664e+08
4.17664e+08
4.17664e+08
4.17664e+08
4.17664e+08
4.17664e+08
4.17664e+08
4.17664e+08
4.17664e+08
4.17664e+08
4.17664e+08
4.17664e+08
4.17664e+08
4.17664e+08
4.17664e+08
4.17657e+08
4.17518e+08
4.1662e+08
4.1373e+08
4.07664e+08
3.97769e+08
3.83951e+08
3.66573e+08
3.46315e+08
3.24007e+08
3.00495e+08
2.76543e+08
2.52791e+08
2.29736e+08
2.07736e+08
1.87033e+08
1.67769e+08
1.5001e+08
1.33763e+08
1.18995e+08
1.05642e+08
9.36242e+07
8.28509e+07
7.32266e+07
6.46564e+07
5.70465e+07
5.03126e+07
4.43734e+07
3.91575e+07
3.46012e+07
3.06496e+07
2.72558e+07
2.43795e+07
2.19843e+07
2.00344e+07
1.84897e+07
1.73014e+07
1.64104e+07
1.57469e+07
1.52341e+07
1.48081e+07
1.44535e+07
1.41795e+07
1.39312e+07
1.36796e+07
1.3422e+07
1.31632e+07
1.29074e+07
1.2657e+07
1.24131e+07
1.21762e+07
1.19469e+07
1.17254e+07
1.15122e+07
1.13067e+07
1.1108e+07
1.09157e+07
1.07296e+07
1.05499e+07
1.03763e+07
1.0208e+07
1.00441e+07
9.88476e+06
9.73039e+06
9.58115e+06
9.43638e+06
9.29514e+06
9.15724e+06
9.0235e+06
8.8948e+06
8.77087e+06
8.65026e+06
8.53168e+06
8.41485e+06
8.29988e+06
8.18634e+06
8.07414e+06
7.96618e+06
7.86813e+06
7.78337e+06
7.70847e+06
7.63148e+06
7.52185e+06
7.31109e+06
6.85612e+06
5.92175e+06
4.33117e+06
2.34336e+06
768996
118747
6800.13
147.521
2.32228
0.0857854
0.0160069
0.009306
0.00855735
0.00850251
0.00863477
0.00887294
0.00914107
0.00917625
0.00915406
0.00906102
0.00885503
0.00870775
0.00856371
0.00843868
0.00834906
0.00830073
0.00820411
0.00814678
0.00807343
0.00794559
0.00774141
0.00735224
0.006512
0.00453458
0.00162758
0.000108299
1.66615e-06
1.45757e-07
1.11732e-07
1.11226e-07
1.11225e-07
1.11225e-07
1.11225e-07
1.11225e-07
1.11225e-07
1.11225e-07
1.11225e-07
1.11225e-07
1.11225e-07
1.11225e-07
1.11225e-07
1.11225e-07
1.11225e-07
4.17664e+08
4.17664e+08
4.17664e+08
4.17664e+08
4.17664e+08
4.17664e+08
4.17664e+08
4.17664e+08
4.17664e+08
4.17664e+08
4.17664e+08
4.17664e+08
4.17664e+08
4.17664e+08
4.17664e+08
4.17664e+08
4.17664e+08
4.17664e+08
4.17664e+08
4.17664e+08
4.17664e+08
4.17664e+08
4.17664e+08
4.17664e+08
4.17664e+08
4.17664e+08
4.17664e+08
4.17664e+08
4.17664e+08
4.17657e+08
4.17518e+08
4.1662e+08
4.1373e+08
4.07664e+08
3.97769e+08
3.83951e+08
3.66573e+08
3.46315e+08
3.24007e+08
3.00495e+08
2.76543e+08
2.52791e+08
2.29736e+08
2.07736e+08
1.87033e+08
1.67769e+08
1.5001e+08
1.33763e+08
1.18995e+08
1.05642e+08
9.36241e+07
8.28508e+07
7.32265e+07
6.46563e+07
5.70464e+07
5.03125e+07
4.43734e+07
3.91574e+07
3.46011e+07
3.06496e+07
2.72558e+07
2.43795e+07
2.19843e+07
2.00344e+07
1.84896e+07
1.73014e+07
1.64104e+07
1.57469e+07
1.52341e+07
1.48081e+07
1.44535e+07
1.41795e+07
1.39312e+07
1.36796e+07
1.3422e+07
1.31632e+07
1.29074e+07
1.2657e+07
1.24131e+07
1.21762e+07
1.19469e+07
1.17254e+07
1.15122e+07
1.13067e+07
1.1108e+07
1.09157e+07
1.07296e+07
1.05499e+07
1.03763e+07
1.0208e+07
1.00441e+07
9.88477e+06
9.73039e+06
9.58116e+06
9.43639e+06
9.29514e+06
9.15724e+06
9.0235e+06
8.8948e+06
8.77087e+06
8.65026e+06
8.53169e+06
8.41485e+06
8.29989e+06
8.18634e+06
8.07414e+06
7.96618e+06
7.86813e+06
7.78338e+06
7.70848e+06
7.63148e+06
7.52186e+06
7.3111e+06
6.85611e+06
5.92174e+06
4.33114e+06
2.34334e+06
768980
118743
6799.87
147.515
2.32221
0.0857845
0.0160069
0.00930603
0.00855737
0.00850253
0.00863479
0.00887296
0.00914109
0.00917627
0.00915408
0.00906104
0.00885506
0.00870777
0.00856373
0.0084387
0.00834908
0.00830075
0.00820412
0.00814679
0.00807344
0.0079456
0.00774142
0.00735225
0.00651203
0.0045346
0.0016276
0.000108302
1.66619e-06
1.45758e-07
1.11732e-07
1.11226e-07
1.11225e-07
1.11225e-07
1.11225e-07
1.11225e-07
1.11225e-07
1.11225e-07
1.11225e-07
1.11225e-07
1.11225e-07
1.11225e-07
1.11225e-07
1.11225e-07
1.11225e-07
4.17664e+08
4.17664e+08
4.17664e+08
4.17664e+08
4.17664e+08
4.17664e+08
4.17664e+08
4.17664e+08
4.17664e+08
4.17664e+08
4.17664e+08
4.17664e+08
4.17664e+08
4.17664e+08
4.17664e+08
4.17664e+08
4.17664e+08
4.17664e+08
4.17664e+08
4.17664e+08
4.17664e+08
4.17664e+08
4.17664e+08
4.17664e+08
4.17664e+08
4.17664e+08
4.17664e+08
4.17664e+08
4.17664e+08
4.17657e+08
4.17518e+08
4.1662e+08
4.13729e+08
4.07664e+08
3.97769e+08
3.8395e+08
3.66573e+08
3.46315e+08
3.24007e+08
3.00495e+08
2.76543e+08
2.52791e+08
2.29735e+08
2.07736e+08
1.87033e+08
1.67769e+08
1.5001e+08
1.33763e+08
1.18995e+08
1.05642e+08
9.3624e+07
8.28507e+07
7.32264e+07
6.46562e+07
5.70463e+07
5.03125e+07
4.43733e+07
3.91574e+07
3.46011e+07
3.06495e+07
2.72558e+07
2.43794e+07
2.19843e+07
2.00343e+07
1.84896e+07
1.73014e+07
1.64103e+07
1.57469e+07
1.52341e+07
1.48081e+07
1.44535e+07
1.41795e+07
1.39312e+07
1.36796e+07
1.3422e+07
1.31632e+07
1.29074e+07
1.2657e+07
1.24131e+07
1.21762e+07
1.19469e+07
1.17254e+07
1.15122e+07
1.13067e+07
1.1108e+07
1.09157e+07
1.07296e+07
1.05499e+07
1.03763e+07
1.0208e+07
1.00441e+07
9.88477e+06
9.73039e+06
9.58116e+06
9.43639e+06
9.29514e+06
9.15725e+06
9.0235e+06
8.89481e+06
8.77088e+06
8.65027e+06
8.53169e+06
8.41486e+06
8.29989e+06
8.18634e+06
8.07415e+06
7.96619e+06
7.86814e+06
7.78339e+06
7.70849e+06
7.63149e+06
7.52187e+06
7.3111e+06
6.85611e+06
5.92173e+06
4.33112e+06
2.34332e+06
768969
118741
6799.69
147.512
2.32216
0.0857838
0.0160069
0.00930606
0.0085574
0.00850255
0.00863481
0.00887299
0.00914112
0.00917629
0.0091541
0.00906106
0.00885508
0.0087078
0.00856375
0.00843872
0.0083491
0.00830076
0.00820413
0.00814681
0.00807345
0.00794561
0.00774144
0.00735227
0.00651205
0.00453463
0.00162761
0.000108304
1.66622e-06
1.45759e-07
1.11732e-07
1.11226e-07
1.11225e-07
1.11225e-07
1.11225e-07
1.11225e-07
1.11225e-07
1.11225e-07
1.11225e-07
1.11225e-07
1.11225e-07
1.11225e-07
1.11225e-07
1.11225e-07
1.11225e-07
4.17664e+08
4.17664e+08
4.17664e+08
4.17664e+08
4.17664e+08
4.17664e+08
4.17664e+08
4.17664e+08
4.17664e+08
4.17664e+08
4.17664e+08
4.17664e+08
4.17664e+08
4.17664e+08
4.17664e+08
4.17664e+08
4.17664e+08
4.17664e+08
4.17664e+08
4.17664e+08
4.17664e+08
4.17664e+08
4.17664e+08
4.17664e+08
4.17664e+08
4.17664e+08
4.17664e+08
4.17664e+08
4.17664e+08
4.17657e+08
4.17518e+08
4.1662e+08
4.13729e+08
4.07664e+08
3.97769e+08
3.8395e+08
3.66573e+08
3.46315e+08
3.24007e+08
3.00494e+08
2.76543e+08
2.52791e+08
2.29735e+08
2.07736e+08
1.87033e+08
1.67769e+08
1.5001e+08
1.33763e+08
1.18994e+08
1.05642e+08
9.36239e+07
8.28506e+07
7.32264e+07
6.46562e+07
5.70463e+07
5.03124e+07
4.43733e+07
3.91573e+07
3.4601e+07
3.06495e+07
2.72557e+07
2.43794e+07
2.19842e+07
2.00343e+07
1.84896e+07
1.73013e+07
1.64103e+07
1.57469e+07
1.52341e+07
1.48081e+07
1.44535e+07
1.41795e+07
1.39311e+07
1.36796e+07
1.3422e+07
1.31632e+07
1.29074e+07
1.2657e+07
1.24131e+07
1.21762e+07
1.19469e+07
1.17254e+07
1.15122e+07
1.13067e+07
1.1108e+07
1.09157e+07
1.07296e+07
1.05499e+07
1.03763e+07
1.0208e+07
1.00441e+07
9.88477e+06
9.73039e+06
9.58116e+06
9.43639e+06
9.29515e+06
9.15725e+06
9.02351e+06
8.89481e+06
8.77088e+06
8.65027e+06
8.53169e+06
8.41486e+06
8.29989e+06
8.18635e+06
8.07415e+06
7.96619e+06
7.86814e+06
7.78339e+06
7.70849e+06
7.6315e+06
7.52188e+06
7.31111e+06
6.85612e+06
5.92172e+06
4.33111e+06
2.3433e+06
768961
118739
6799.56
147.509
2.32213
0.0857833
0.0160069
0.00930608
0.00855742
0.00850257
0.00863483
0.00887301
0.00914113
0.00917631
0.00915412
0.00906108
0.0088551
0.00870782
0.00856377
0.00843874
0.00834911
0.00830078
0.00820415
0.00814682
0.00807347
0.00794563
0.00774146
0.00735229
0.00651207
0.00453465
0.00162763
0.000108307
1.66625e-06
1.45759e-07
1.11732e-07
1.11226e-07
1.11225e-07
1.11225e-07
1.11225e-07
1.11225e-07
1.11225e-07
1.11225e-07
1.11225e-07
1.11225e-07
1.11225e-07
1.11225e-07
1.11225e-07
1.11225e-07
1.11225e-07
4.17664e+08
4.17664e+08
4.17664e+08
4.17664e+08
4.17664e+08
4.17664e+08
4.17664e+08
4.17664e+08
4.17664e+08
4.17664e+08
4.17664e+08
4.17664e+08
4.17664e+08
4.17664e+08
4.17664e+08
4.17664e+08
4.17664e+08
4.17664e+08
4.17664e+08
4.17664e+08
4.17664e+08
4.17664e+08
4.17664e+08
4.17664e+08
4.17664e+08
4.17664e+08
4.17664e+08
4.17664e+08
4.17664e+08
4.17657e+08
4.17518e+08
4.1662e+08
4.13729e+08
4.07664e+08
3.97769e+08
3.8395e+08
3.66573e+08
3.46315e+08
3.24007e+08
3.00494e+08
2.76543e+08
2.52791e+08
2.29735e+08
2.07736e+08
1.87033e+08
1.67769e+08
1.5001e+08
1.33763e+08
1.18994e+08
1.05642e+08
9.36239e+07
8.28505e+07
7.32263e+07
6.46561e+07
5.70462e+07
5.03124e+07
4.43732e+07
3.91573e+07
3.4601e+07
3.06494e+07
2.72557e+07
2.43793e+07
2.19842e+07
2.00343e+07
1.84895e+07
1.73013e+07
1.64103e+07
1.57468e+07
1.5234e+07
1.48081e+07
1.44535e+07
1.41795e+07
1.39311e+07
1.36796e+07
1.3422e+07
1.31632e+07
1.29074e+07
1.2657e+07
1.24131e+07
1.21762e+07
1.19469e+07
1.17254e+07
1.15122e+07
1.13067e+07
1.1108e+07
1.09157e+07
1.07296e+07
1.05499e+07
1.03763e+07
1.0208e+07
1.00441e+07
9.88477e+06
9.73039e+06
9.58116e+06
9.43639e+06
9.29515e+06
9.15725e+06
9.02351e+06
8.89481e+06
8.77088e+06
8.65027e+06
8.5317e+06
8.41486e+06
8.2999e+06
8.18635e+06
8.07415e+06
7.9662e+06
7.86815e+06
7.7834e+06
7.7085e+06
7.6315e+06
7.52188e+06
7.31111e+06
6.85612e+06
5.92172e+06
4.3311e+06
2.34329e+06
768954
118737
6799.46
147.506
2.3221
0.0857829
0.0160069
0.0093061
0.00855744
0.00850259
0.00863485
0.00887303
0.00914115
0.00917633
0.00915414
0.0090611
0.00885512
0.00870784
0.00856379
0.00843876
0.00834913
0.0083008
0.00820416
0.00814684
0.00807349
0.00794565
0.00774148
0.00735232
0.0065121
0.00453468
0.00162765
0.000108309
1.66628e-06
1.4576e-07
1.11732e-07
1.11226e-07
1.11225e-07
1.11225e-07
1.11225e-07
1.11225e-07
1.11225e-07
1.11225e-07
1.11225e-07
1.11225e-07
1.11225e-07
1.11225e-07
1.11225e-07
1.11225e-07
1.11225e-07
4.17664e+08
4.17664e+08
4.17664e+08
4.17664e+08
4.17664e+08
4.17664e+08
4.17664e+08
4.17664e+08
4.17664e+08
4.17664e+08
4.17664e+08
4.17664e+08
4.17664e+08
4.17664e+08
4.17664e+08
4.17664e+08
4.17664e+08
4.17664e+08
4.17664e+08
4.17664e+08
4.17664e+08
4.17664e+08
4.17664e+08
4.17664e+08
4.17664e+08
4.17664e+08
4.17664e+08
4.17664e+08
4.17664e+08
4.17657e+08
4.17518e+08
4.1662e+08
4.13729e+08
4.07664e+08
3.97769e+08