/*--------------------------------*- C++ -*----------------------------------*\
  =========                 |
  \\      /  F ield         | OpenFOAM: The Open Source CFD Toolbox
   \\    /   O peration     | Website:  https://openfoam.org
    \\  /    A nd           | Version:  13
     \\/     M anipulation  |
\*---------------------------------------------------------------------------*/
FoamFile
{
    format      ascii;
    class       volVectorField;
    location    "0.0018";
    object      U;
}
// * * * * * * * * * * * * * * * * * * * * * * * * * * * * * * * * * * * * * //

dimensions      [0 1 -1 0 0 0 0];

internalField   nonuniform List<vector> 
33333
(
(4.55372e-13 3.31855e-13 0)
(7.84564e-13 3.24138e-13 0)
(5.88556e-13 1.7088e-13 0)
(3.36869e-13 2.85552e-13 0)
(6.35749e-13 3.80207e-13 0)
(7.23796e-13 4.16154e-13 0)
(4.52828e-13 3.2761e-13 0)
(1.09839e-13 -1.80189e-14 0)
(-7.23072e-14 4.52238e-14 0)
(2.01474e-14 9.53671e-14 0)
(-2.94573e-13 2.69543e-13 0)
(-6.07416e-13 3.24036e-13 0)
(-3.96977e-13 3.24451e-13 0)
(-1.7748e-13 3.58366e-13 0)
(-2.2006e-13 4.62976e-13 0)
(-2.69454e-13 3.82247e-13 0)
(-1.10376e-13 2.44146e-13 0)
(7.72315e-14 2.32121e-13 0)
(-4.58996e-14 1.88773e-13 0)
(-1.45352e-13 2.29565e-13 0)
(-2.91014e-13 1.35855e-13 0)
(-5.1834e-13 4.04226e-13 0)
(-4.31393e-13 6.12297e-13 0)
(-3.48922e-13 4.82726e-13 0)
(-7.13916e-14 4.31982e-13 0)
(1.63025e-13 4.1097e-13 0)
(4.78909e-13 2.92265e-13 0)
(3.81078e-13 1.2813e-13 0)
(-2.64129e-13 1.76221e-13 0)
(-3.49751e-13 3.00309e-13 0)
(-2.0302e-13 3.46871e-13 0)
(-2.50526e-13 5.23857e-13 0)
(-3.19796e-13 3.93255e-13 0)
(-1.55381e-13 3.57302e-13 0)
(1.23042e-13 3.44723e-13 0)
(1.27178e-13 3.93926e-13 0)
(-1.05763e-13 3.24299e-13 0)
(-1.33258e-14 3.17692e-13 0)
(1.52006e-13 3.8662e-13 0)
(2.19724e-13 5.92519e-13 0)
(3.10896e-13 4.34289e-13 0)
(5.25653e-13 3.80503e-13 0)
(7.2431e-13 4.49898e-13 0)
(5.87752e-13 4.67117e-13 0)
(3.19353e-13 3.99286e-13 0)
(2.3546e-13 3.13357e-13 0)
(1.37125e-13 3.80398e-13 0)
(1.5427e-13 4.47423e-13 0)
(2.06465e-13 4.21994e-13 0)
(1.59005e-13 2.77845e-13 0)
(1.39163e-13 3.15181e-13 0)
(1.81789e-13 2.31613e-13 0)
(1.54308e-13 1.96129e-13 0)
(2.12707e-13 1.9679e-13 0)
(1.33803e-13 1.67063e-13 0)
(5.92762e-14 3.80743e-13 0)
(6.58089e-14 6.28166e-13 0)
(1.17137e-13 5.00237e-13 0)
(2.47646e-13 4.6516e-13 0)
(4.64325e-13 5.26421e-13 0)
(2.93353e-13 4.70279e-13 0)
(-2.62018e-13 5.88971e-13 0)
(-3.73265e-13 6.25573e-13 0)
(-2.53191e-13 6.26241e-13 0)
(-3.08668e-13 5.69456e-13 0)
(-2.72553e-13 4.73211e-13 0)
(-1.00527e-13 3.82909e-13 0)
(1.33715e-13 2.73538e-13 0)
(1.58221e-13 2.23405e-13 0)
(2.25856e-14 1.45815e-13 0)
(-1.30913e-13 9.67869e-14 0)
(-1.12543e-13 2.73894e-13 0)
(1.4389e-13 3.87292e-13 0)
(2.19811e-13 2.0448e-13 0)
(2.69123e-14 9.07986e-14 0)
(-2.55585e-14 1.54289e-13 0)
(1.34122e-13 2.04026e-13 0)
(7.4337e-14 3.92003e-13 0)
(1.477e-13 3.11123e-13 0)
(1.36785e-13 3.05367e-13 0)
(7.18101e-14 3.82265e-13 0)
(1.55107e-13 5.7574e-13 0)
(1.53201e-13 5.90941e-13 0)
(2.92941e-13 5.2909e-13 0)
(4.9115e-13 4.92225e-13 0)
(2.80527e-13 5.30548e-13 0)
(-3.1746e-13 6.30703e-13 0)
(-5.15706e-13 5.70441e-13 0)
(-4.98665e-13 4.54258e-13 0)
(-4.72977e-13 4.53408e-13 0)
(-4.55911e-13 3.63381e-13 0)
(-1.26654e-13 2.99119e-13 0)
(2.13855e-13 2.18066e-13 0)
(2.04553e-13 1.2063e-13 0)
(1.34892e-13 8.73584e-14 0)
(1.13923e-13 3.67158e-14 0)
(4.64552e-14 9.60571e-14 0)
(1.32835e-13 2.80392e-13 0)
(3.72725e-13 3.53992e-13 0)
(3.64552e-13 2.27562e-13 0)
(2.49805e-13 2.97448e-13 0)
(1.94918e-13 2.7877e-13 0)
(3.07586e-13 9.74865e-14 0)
(2.64456e-13 -1.41268e-13 0)
(6.22297e-14 -5.99375e-14 0)
(-2.62827e-13 1.77359e-13 0)
(-7.1639e-13 4.35506e-13 0)
(-6.79583e-13 5.09818e-13 0)
(-4.17771e-13 4.24091e-13 0)
(-2.93916e-13 3.66813e-13 0)
(-4.06015e-13 3.45019e-13 0)
(-6.26339e-13 3.55004e-13 0)
(-4.7623e-13 4.22226e-13 0)
(-1.46053e-13 5.07619e-13 0)
(-1.10495e-13 7.0403e-13 0)
(-3.38386e-14 5.46291e-13 0)
(2.32215e-13 5.64346e-13 0)
(4.06628e-13 5.27989e-13 0)
(3.29627e-13 5.20909e-13 0)
(5.07322e-14 3.85182e-13 0)
(-1.53155e-14 2.99993e-13 0)
(-3.85522e-14 3.63449e-13 0)
(2.35977e-14 4.4065e-13 0)
(8.48573e-14 4.43024e-13 0)
(9.77089e-15 2.69435e-13 0)
(2.10663e-14 2.91124e-13 0)
(1.04028e-13 1.75848e-13 0)
(-2.36468e-14 1.77287e-13 0)
(5.88217e-14 2.22165e-13 0)
(-1.04866e-13 1.27134e-13 0)
(-3.17743e-13 3.13435e-13 0)
(-1.60083e-13 5.17999e-13 0)
(-5.68955e-14 6.21777e-13 0)
(-8.47775e-15 7.49188e-13 0)
(4.08216e-14 6.77772e-13 0)
(-5.93987e-14 5.604e-13 0)
(-1.36153e-13 4.27807e-13 0)
(-1.50118e-13 3.8415e-13 0)
(-1.52059e-13 4.83784e-13 0)
(-9.80008e-14 5.22447e-13 0)
(-1.50301e-13 5.48435e-13 0)
(-4.29261e-14 5.06216e-13 0)
(1.46298e-13 3.73223e-13 0)
(1.09128e-13 2.80485e-13 0)
(7.64168e-14 3.18535e-13 0)
(1.59781e-13 3.0565e-13 0)
(1.21735e-13 3.0965e-13 0)
(1.35392e-13 3.36804e-13 0)
(3.09635e-13 2.45991e-13 0)
(1.03015e-13 7.54725e-14 0)
(4.19235e-14 1.22111e-13 0)
(1.22868e-13 4.92001e-14 0)
(-1.57249e-13 1.23297e-13 0)
(-1.8272e-14 2.34017e-13 0)
(-4.00751e-14 2.94462e-13 0)
(-1.4297e-13 3.84183e-13 0)
(-1.0623e-13 5.12846e-13 0)
(-6.83338e-14 4.84246e-13 0)
(1.41463e-13 3.64957e-13 0)
(4.8262e-13 3.4072e-13 0)
(2.3033e-13 2.82919e-13 0)
(-1.43407e-13 2.90649e-13 0)
(1.27727e-13 3.03463e-13 0)
(3.25307e-13 4.2247e-13 0)
(3.90319e-13 6.60256e-13 0)
(2.23813e-13 5.2088e-13 0)
(5.51043e-13 5.3376e-13 0)
(7.45583e-13 6.13981e-13 0)
(6.44819e-13 4.63083e-13 0)
(4.6573e-13 6.59385e-13 0)
(5.53214e-13 4.05682e-13 0)
(6.49832e-13 3.07445e-13 0)
(3.82699e-13 1.57943e-13 0)
(6.64465e-14 3.19141e-13 0)
(1.70991e-14 3.606e-13 0)
(1.84024e-13 3.64288e-13 0)
(-1.24329e-13 5.27314e-13 0)
(-6.05331e-13 7.919e-13 0)
(-5.06163e-13 8.11129e-13 0)
(-1.99107e-13 7.05686e-13 0)
(-2.60654e-13 6.02485e-13 0)
(-4.16596e-13 5.81369e-13 0)
(-2.31662e-13 4.22278e-13 0)
(2.34303e-14 4.25065e-13 0)
(1.52827e-14 5.25169e-13 0)
(-1.6519e-13 7.44465e-13 0)
(-2.15045e-13 6.07483e-13 0)
(-3.20415e-13 8.87902e-13 0)
(-5.30143e-13 8.29836e-13 0)
(-5.9097e-13 6.0476e-13 0)
(-2.18928e-13 4.78351e-13 0)
(1.1319e-13 4.15095e-13 0)
(4.31786e-13 4.51068e-13 0)
(3.7033e-13 3.69986e-13 0)
(1.76899e-14 5.63837e-13 0)
(-2.75263e-13 7.15973e-13 0)
(-3.91098e-13 7.39841e-13 0)
(-3.47299e-13 4.30919e-13 0)
(-3.50479e-13 4.69911e-13 0)
(-1.56333e-13 5.7248e-13 0)
(1.98199e-13 6.3741e-13 0)
(1.2102e-13 5.54557e-13 0)
(-1.88678e-13 5.04332e-13 0)
(-2.19913e-14 6.53474e-13 0)
(2.09656e-13 5.9083e-13 0)
(2.49697e-13 6.18911e-13 0)
(3.41349e-13 4.66347e-13 0)
(6.42878e-13 5.39887e-13 0)
(8.83912e-13 4.54749e-13 0)
(6.95823e-13 6.77296e-13 0)
(2.98087e-13 6.52389e-13 0)
(2.56876e-13 7.39383e-13 0)
(1.18107e-13 8.08819e-13 0)
(8.62453e-14 6.77356e-13 0)
(1.16836e-13 6.4702e-13 0)
(9.51652e-14 5.92e-13 0)
(1.83944e-13 4.92756e-13 0)
(1.32926e-13 4.71546e-13 0)
(1.83925e-13 5.64477e-13 0)
(1.9422e-13 7.08106e-13 0)
(1.90938e-13 7.00752e-13 0)
(2.41486e-13 8.61847e-13 0)
(3.60426e-14 8.18701e-13 0)
(-5.91583e-14 6.29888e-13 0)
(2.05018e-13 4.85944e-13 0)
(4.38796e-13 5.3424e-13 0)
(3.03322e-13 5.70181e-13 0)
(-1.17441e-13 4.83538e-13 0)
(-2.80633e-13 8.47422e-13 0)
(-2.43111e-13 6.5916e-13 0)
(-2.8381e-13 8.61554e-13 0)
(-3.61506e-13 6.92763e-13 0)
(-1.83624e-13 4.84941e-13 0)
(1.2659e-13 4.0977e-13 0)
(1.61866e-13 5.26097e-13 0)
(-4.11581e-14 5.99728e-13 0)
(-1.57106e-14 4.3406e-13 0)
(9.61685e-14 6.77198e-13 0)
(7.6564e-14 7.04865e-13 0)
(3.76282e-14 5.48628e-13 0)
(4.9791e-15 5.13531e-13 0)
(7.82564e-14 3.43339e-13 0)
(3.75845e-13 3.66533e-13 0)
(1.92544e-13 3.16242e-13 0)
(9.0358e-14 6.05922e-13 0)
(1.29525e-13 5.71696e-13 0)
(1.64146e-13 8.14694e-13 0)
(1.25521e-13 7.98395e-13 0)
(1.14314e-14 6.36247e-13 0)
(2.2954e-13 5.54528e-13 0)
(5.25668e-13 4.90029e-13 0)
(3.6351e-13 4.55373e-13 0)
(-2.05933e-13 5.16719e-13 0)
(-5.60453e-13 8.12332e-13 0)
(-6.42272e-13 7.7292e-13 0)
(-5.31877e-13 9.2641e-13 0)
(-5.20985e-13 7.15437e-13 0)
(-2.53979e-13 5.35054e-13 0)
(8.39311e-14 4.09818e-13 0)
(1.93355e-13 3.82635e-13 0)
(9.87784e-14 4.90774e-13 0)
(9.96666e-14 3.94076e-13 0)
(1.93277e-13 4.63736e-13 0)
(4.02071e-13 5.91654e-13 0)
(3.82346e-13 6.95069e-13 0)
(3.04769e-13 6.84242e-13 0)
(2.46717e-13 5.14453e-13 0)
(4.92869e-14 2.88774e-13 0)
(1.00214e-13 1.75835e-13 0)
(1.38127e-13 1.30834e-13 0)
(5.108e-14 2.07394e-13 0)
(-1.72515e-13 4.2002e-13 0)
(-5.79087e-13 4.33567e-13 0)
(-6.70171e-13 4.60214e-13 0)
(-4.37396e-13 3.75047e-13 0)
(-2.56513e-13 3.70957e-13 0)
(-4.01975e-13 4.28939e-13 0)
(-5.3717e-13 3.68777e-13 0)
(-3.59277e-13 6.44019e-13 0)
(-9.00985e-14 6.79845e-13 0)
(-1.29954e-13 5.51413e-13 0)
(-4.27804e-14 6.43111e-13 0)
(2.24623e-13 5.80058e-13 0)
(3.85701e-13 6.26686e-13 0)
(2.90567e-13 7.21986e-13 0)
(-2.10129e-14 8.56623e-13 0)
(9.27616e-15 8.14011e-13 0)
(2.69038e-14 9.45612e-13 0)
(8.04217e-14 8.80373e-13 0)
(-8.44202e-15 7.57616e-13 0)
(-1.15737e-13 6.64941e-13 0)
(-2.80241e-14 5.30784e-13 0)
(5.47006e-14 4.45083e-13 0)
(5.37959e-14 5.34114e-13 0)
(-4.87166e-14 7.66497e-13 0)
(-1.5395e-13 5.24274e-13 0)
(-1.39818e-13 7.50402e-13 0)
(-1.81644e-13 6.82356e-13 0)
(-6.85982e-14 6.06666e-13 0)
(-2.63168e-14 5.59891e-13 0)
(-3.67246e-14 5.41802e-13 0)
(-6.52197e-14 6.99747e-13 0)
(-1.55088e-13 7.24971e-13 0)
(-1.20124e-13 9.08845e-13 0)
(-9.81275e-14 8.6252e-13 0)
(-1.01624e-13 9.64259e-13 0)
(-8.4021e-14 7.36079e-13 0)
(-5.00968e-14 6.31442e-13 0)
(3.45358e-14 7.19425e-13 0)
(2.21711e-13 6.77389e-13 0)
(1.80841e-13 7.92217e-13 0)
(1.68896e-13 7.88044e-13 0)
(1.01181e-13 8.30734e-13 0)
(2.65197e-14 7.77071e-13 0)
(1.24155e-13 6.89445e-13 0)
(3.23649e-15 5.3013e-13 0)
(-1.86744e-15 4.27796e-13 0)
(8.12598e-14 2.59514e-13 0)
(2.23445e-14 3.7661e-13 0)
(9.4869e-14 6.58079e-13 0)
(3.12961e-14 6.07124e-13 0)
(-7.93766e-14 7.73417e-13 0)
(-1.0611e-13 7.3861e-13 0)
(-1.309e-13 6.63423e-13 0)
(7.50438e-14 5.51341e-13 0)
(4.6424e-13 5.294e-13 0)
(2.39961e-13 5.43821e-13 0)
(-7.20105e-14 5.41438e-13 0)
(1.13057e-13 6.1041e-13 0)
(3.91387e-13 6.43577e-13 0)
(3.35666e-13 6.69919e-13 0)
(6.61084e-14 4.31419e-13 0)
(5.20283e-13 5.50918e-13 0)
(7.39422e-13 6.1492e-13 0)
(6.62337e-13 5.84657e-13 0)
(3.98561e-13 4.80892e-13 0)
(4.02174e-13 4.82751e-13 0)
(5.21967e-13 4.73637e-13 0)
(4.94238e-13 3.68635e-13 0)
(3.14117e-13 4.38845e-13 0)
(-2.19124e-14 3.17833e-13 0)
(1.33062e-13 3.05703e-13 0)
(1.22412e-14 2.54957e-13 0)
(-4.32453e-13 4.6639e-13 0)
(-5.58864e-13 6.13824e-13 0)
(-3.68789e-13 6.86616e-13 0)
(-3.34695e-13 5.41693e-13 0)
(-4.44758e-13 4.0311e-13 0)
(-2.57939e-13 4.71726e-13 0)
(1.50124e-13 5.2809e-13 0)
(2.7367e-13 6.26997e-13 0)
(-7.89551e-15 7.73201e-13 0)
(-1.41433e-13 8.67415e-13 0)
(-3.7294e-13 8.85767e-13 0)
(-7.56177e-13 7.94939e-13 0)
(-6.78355e-13 6.85626e-13 0)
(-2.71231e-13 6.79031e-13 0)
(1.4404e-13 5.90647e-13 0)
(4.71195e-13 5.84835e-13 0)
(4.67591e-13 4.7565e-13 0)
(1.45775e-13 4.89072e-13 0)
(-2.45054e-13 4.37012e-13 0)
(-5.92305e-13 6.08265e-13 0)
(-5.25541e-13 5.18384e-13 0)
(-1.74852e-13 5.76358e-13 0)
(-3.3353e-14 6.63003e-13 0)
(8.51459e-14 6.89051e-13 0)
(6.71974e-14 4.96898e-13 0)
(6.7632e-15 5.99988e-13 0)
(7.00135e-14 8.58568e-13 0)
(9.79967e-14 7.46124e-13 0)
(1.61829e-13 7.76147e-13 0)
(3.04862e-13 7.43365e-13 0)
(5.65235e-13 8.18353e-13 0)
(8.89866e-13 7.62213e-13 0)
(8.10447e-13 6.21098e-13 0)
(4.45687e-13 7.88206e-13 0)
(2.9458e-13 9.22535e-13 0)
(1.79976e-14 7.29488e-13 0)
(-3.612e-14 5.84488e-13 0)
(1.54292e-13 4.66262e-13 0)
(5.15627e-14 4.67286e-13 0)
(1.17344e-13 5.00199e-13 0)
(3.29385e-13 7.58456e-13 0)
(3.4143e-13 1.01157e-12 0)
(2.22124e-13 1.00329e-12 0)
(1.97066e-13 9.03045e-13 0)
(1.65232e-13 9.74731e-13 0)
(-1.15495e-13 8.71118e-13 0)
(-2.10803e-13 8.83793e-13 0)
(1.53526e-13 7.9355e-13 0)
(4.686e-13 9.57875e-13 0)
(2.52686e-13 7.76937e-13 0)
(-1.83843e-14 7.46153e-13 0)
(-2.21877e-13 8.11245e-13 0)
(-2.11292e-13 7.58879e-13 0)
(-2.50079e-13 9.60266e-13 0)
(-5.35204e-13 9.76204e-13 0)
(-2.76792e-13 7.95814e-13 0)
(1.85602e-13 7.21145e-13 0)
(3.57025e-13 5.76407e-13 0)
(-6.08871e-14 6.34265e-13 0)
(-5.44068e-14 6.47123e-13 0)
(1.55568e-13 6.19674e-13 0)
(5.74764e-14 5.84335e-13 0)
(7.06533e-14 6.75054e-13 0)
(-1.11496e-13 6.63974e-13 0)
(-6.26552e-14 4.87132e-13 0)
(2.2041e-13 4.96612e-13 0)
(3.37123e-13 3.94837e-13 0)
(2.80044e-13 6.3931e-13 0)
(2.06641e-13 4.92537e-13 0)
(2.49538e-13 5.76481e-13 0)
(3.91559e-15 5.53648e-13 0)
(-1.44824e-14 6.89376e-13 0)
(2.11455e-13 7.24919e-13 0)
(4.51864e-13 7.38582e-13 0)
(3.25726e-13 6.46624e-13 0)
(-6.1516e-14 7.02505e-13 0)
(-4.28018e-13 6.82242e-13 0)
(-5.03233e-13 7.53187e-13 0)
(-5.36228e-13 9.29947e-13 0)
(-6.70545e-13 9.22707e-13 0)
(-3.69077e-13 8.10284e-13 0)
(7.20882e-14 6.37235e-13 0)
(3.23187e-13 5.55776e-13 0)
(1.34213e-13 6.36742e-13 0)
(6.2454e-14 5.91745e-13 0)
(3.06805e-13 6.43486e-13 0)
(4.6055e-13 7.28666e-13 0)
(4.96129e-13 6.85129e-13 0)
(2.66442e-13 6.91791e-13 0)
(-6.85936e-15 4.17356e-13 0)
(-5.57189e-15 4.21443e-13 0)
(1.37957e-13 4.81391e-13 0)
(1.43375e-13 4.55886e-13 0)
(1.09134e-13 4.16552e-13 0)
(-9.6775e-14 5.12633e-13 0)
(-6.17924e-13 5.22187e-13 0)
(-7.12231e-13 6.33954e-13 0)
(-4.59877e-13 6.97863e-13 0)
(-2.681e-13 5.24518e-13 0)
(-3.86188e-13 4.27879e-13 0)
(-4.05905e-13 5.63568e-13 0)
(-2.29002e-13 6.2353e-13 0)
(-2.25779e-13 7.14466e-13 0)
(-1.71942e-13 6.27294e-13 0)
(8.47623e-14 7.31783e-13 0)
(2.55165e-13 6.97668e-13 0)
(4.27151e-13 6.35423e-13 0)
(4.26755e-13 6.69493e-13 0)
(1.3568e-13 8.01576e-13 0)
(1.17028e-13 8.58338e-13 0)
(7.46951e-14 9.60807e-13 0)
(-1.39744e-13 9.18496e-13 0)
(-1.26674e-13 7.39316e-13 0)
(-1.98334e-13 5.76735e-13 0)
(-1.1592e-13 5.84812e-13 0)
(1.67937e-13 8.09442e-13 0)
(2.22509e-13 9.24736e-13 0)
(-4.59573e-14 9.12624e-13 0)
(-1.61332e-13 7.18042e-13 0)
(-1.59238e-13 6.50401e-13 0)
(-3.56956e-13 6.30741e-13 0)
(-2.3252e-13 6.60772e-13 0)
(-7.84792e-14 6.56326e-13 0)
(1.15447e-13 7.01694e-13 0)
(6.39648e-14 6.55538e-13 0)
(3.66521e-14 9.04261e-13 0)
(-6.16979e-14 9.37782e-13 0)
(-6.07376e-14 9.39901e-13 0)
(-1.21083e-13 1.13302e-12 0)
(-2.78645e-13 1.08936e-12 0)
(-3.76268e-14 9.97001e-13 0)
(1.27306e-13 1.13225e-12 0)
(2.45585e-13 1.05031e-12 0)
(2.19608e-13 1.03756e-12 0)
(2.24165e-13 9.16656e-13 0)
(1.63851e-13 1.02038e-12 0)
(4.75208e-15 1.01602e-12 0)
(5.82966e-14 8.74887e-13 0)
(-1.2819e-13 8.07775e-13 0)
(-1.30745e-13 6.17283e-13 0)
(1.68544e-13 5.97199e-13 0)
(1.8123e-13 7.3986e-13 0)
(1.01724e-13 5.57165e-13 0)
(6.87347e-14 4.31273e-13 0)
(-1.13309e-16 5.70115e-13 0)
(-2.21962e-13 6.49134e-13 0)
(-2.03315e-13 7.82178e-13 0)
(5.21722e-14 9.3324e-13 0)
(3.55879e-13 7.90727e-13 0)
(2.05128e-13 5.20635e-13 0)
(-1.20567e-14 6.57773e-13 0)
(1.76442e-13 5.81832e-13 0)
(4.0221e-13 5.99234e-13 0)
(2.13529e-13 6.15651e-13 0)
(-5.76917e-14 4.42715e-13 0)
(6.24915e-13 6.10305e-13 0)
(8.32246e-13 5.43342e-13 0)
(5.65716e-13 5.50175e-13 0)
(3.55815e-13 4.931e-13 0)
(5.27846e-13 7.34729e-13 0)
(4.99003e-13 7.64196e-13 0)
(3.42578e-13 8.10926e-13 0)
(9.92003e-14 5.54019e-13 0)
(-7.1962e-14 3.16882e-13 0)
(1.0644e-13 3.51788e-13 0)
(2.62602e-14 4.30868e-13 0)
(-3.07849e-13 5.05098e-13 0)
(-3.99807e-13 6.55875e-13 0)
(-3.03799e-13 7.53532e-13 0)
(-5.088e-13 5.66166e-13 0)
(-5.17502e-13 4.74478e-13 0)
(-1.32392e-13 5.94793e-13 0)
(1.9496e-13 7.18308e-13 0)
(2.85193e-13 6.56934e-13 0)
(8.57183e-14 6.21483e-13 0)
(-8.38184e-14 8.1746e-13 0)
(-3.71297e-13 6.93914e-13 0)
(-7.50593e-13 9.39109e-13 0)
(-6.14009e-13 8.86518e-13 0)
(-2.42387e-13 9.76798e-13 0)
(3.29855e-14 8.70817e-13 0)
(2.93798e-13 7.67171e-13 0)
(2.72386e-13 5.57261e-13 0)
(1.71044e-14 4.86281e-13 0)
(-1.53514e-13 5.8125e-13 0)
(-3.56603e-13 6.18028e-13 0)
(-4.40241e-13 8.66682e-13 0)
(-1.93126e-13 8.88519e-13 0)
(-1.20707e-14 8.95367e-13 0)
(-1.46745e-14 9.93943e-13 0)
(3.12505e-14 8.79543e-13 0)
(1.89605e-13 9.23508e-13 0)
(1.57008e-13 9.0282e-13 0)
(1.52882e-13 1.026e-12 0)
(2.5476e-13 1.18654e-12 0)
(2.78283e-13 1.17458e-12 0)
(5.04714e-13 1.22235e-12 0)
(6.35134e-13 9.50023e-13 0)
(7.44173e-13 6.9351e-13 0)
(6.13484e-13 6.72817e-13 0)
(1.86183e-13 7.69872e-13 0)
(-1.54312e-13 5.51385e-13 0)
(-8.43208e-14 6.23045e-13 0)
(4.84594e-14 5.79486e-13 0)
(1.08939e-13 5.17076e-13 0)
(3.99156e-13 7.24632e-13 0)
(6.51942e-13 8.52254e-13 0)
(4.31498e-13 9.81278e-13 0)
(7.24878e-14 8.8491e-13 0)
(1.14405e-13 9.04149e-13 0)
(1.73622e-13 8.07102e-13 0)
(-1.00634e-13 9.31615e-13 0)
(-1.63294e-13 1.14595e-12 0)
(2.74054e-13 1.07947e-12 0)
(3.495e-13 1.21338e-12 0)
(6.97727e-14 9.76929e-13 0)
(-4.16402e-14 8.68604e-13 0)
(-2.75773e-13 6.21174e-13 0)
(-1.22512e-13 6.98066e-13 0)
(-1.02046e-13 8.03249e-13 0)
(-5.42703e-13 9.16363e-13 0)
(-3.9791e-13 9.91191e-13 0)
(4.74052e-14 7.62363e-13 0)
(2.15278e-13 5.10304e-13 0)
(3.75204e-14 4.72142e-13 0)
(-1.91455e-14 6.8438e-13 0)
(9.67869e-14 5.7453e-13 0)
(1.30584e-13 6.08181e-13 0)
(7.64519e-14 5.25005e-13 0)
(-1.30193e-13 4.4418e-13 0)
(-9.54438e-14 6.97733e-13 0)
(2.17699e-13 7.58438e-13 0)
(4.32599e-13 8.85315e-13 0)
(2.39669e-13 7.51834e-13 0)
(2.74463e-14 7.68309e-13 0)
(1.68561e-13 6.94467e-13 0)
(1.40233e-13 6.21897e-13 0)
(1.6206e-13 8.28979e-13 0)
(2.71042e-13 8.32225e-13 0)
(4.05421e-13 8.76671e-13 0)
(3.25472e-13 6.8356e-13 0)
(-1.50446e-13 7.28468e-13 0)
(-5.20596e-13 5.3172e-13 0)
(-3.62183e-13 6.7408e-13 0)
(-3.46024e-13 7.32485e-13 0)
(-5.95954e-13 8.69321e-13 0)
(-5.03022e-13 9.31861e-13 0)
(-1.12391e-13 8.23079e-13 0)
(2.70668e-13 7.98237e-13 0)
(1.28401e-13 6.14389e-13 0)
(9.36931e-14 5.77927e-13 0)
(3.86355e-13 6.29737e-13 0)
(5.36776e-13 7.48539e-13 0)
(4.62077e-13 7.12099e-13 0)
(1.32987e-13 6.20927e-13 0)
(-4.04949e-14 5.61022e-13 0)
(4.33246e-14 6.43199e-13 0)
(1.15041e-13 7.45369e-13 0)
(5.35014e-14 5.63142e-13 0)
(5.68314e-14 5.81307e-13 0)
(-7.40875e-14 4.86861e-13 0)
(-5.29175e-13 5.82379e-13 0)
(-5.41593e-13 8.47576e-13 0)
(-5.2612e-13 8.56098e-13 0)
(-4.96151e-13 8.10454e-13 0)
(-4.0521e-13 6.49563e-13 0)
(-2.85867e-13 7.03955e-13 0)
(-1.10443e-13 6.51663e-13 0)
(-1.48158e-13 7.70092e-13 0)
(-1.07406e-13 9.49535e-13 0)
(9.70423e-14 9.43039e-13 0)
(1.33985e-13 1.01391e-12 0)
(2.81936e-13 8.01037e-13 0)
(3.96685e-13 6.40975e-13 0)
(1.86459e-13 6.04144e-13 0)
(1.60124e-13 7.93811e-13 0)
(1.11468e-13 6.57026e-13 0)
(-1.24149e-13 7.16563e-13 0)
(-2.91137e-13 6.49093e-13 0)
(-2.69746e-13 5.70519e-13 0)
(1.16803e-13 7.31266e-13 0)
(3.9821e-13 8.80907e-13 0)
(1.80903e-13 9.1888e-13 0)
(-2.08856e-13 7.05858e-13 0)
(-3.27418e-13 6.88347e-13 0)
(-1.75615e-13 5.76594e-13 0)
(-2.05996e-13 8.50673e-13 0)
(-1.54822e-13 9.84373e-13 0)
(-6.45119e-14 8.97937e-13 0)
(-5.75371e-14 9.42078e-13 0)
(9.86943e-14 7.6612e-13 0)
(1.03331e-13 7.56675e-13 0)
(-1.01175e-13 6.3279e-13 0)
(5.45494e-14 7.2883e-13 0)
(4.06922e-14 8.59693e-13 0)
(-1.93458e-13 1.00817e-12 0)
(2.11287e-14 1.14024e-12 0)
(1.398e-13 1.05083e-12 0)
(1.29355e-13 1.09265e-12 0)
(1.26326e-13 9.73107e-13 0)
(1.76762e-13 9.77834e-13 0)
(1.67701e-13 8.95502e-13 0)
(-7.31945e-14 8.50083e-13 0)
(-2.27498e-14 7.0817e-13 0)
(-2.11011e-13 5.32133e-13 0)
(-1.20384e-13 6.49865e-13 0)
(2.95006e-13 7.49316e-13 0)
(1.01385e-13 8.17899e-13 0)
(-1.14818e-13 6.8454e-13 0)
(2.53697e-14 7.37293e-13 0)
(1.04911e-13 6.92094e-13 0)
(-2.08324e-14 8.05799e-13 0)
(9.88927e-15 9.56951e-13 0)
(8.79696e-14 9.09239e-13 0)
(6.54671e-14 9.29624e-13 0)
(9.60282e-14 6.28763e-13 0)
(2.00262e-14 6.31564e-13 0)
(1.25177e-13 5.87746e-13 0)
(3.97858e-13 5.59086e-13 0)
(1.71245e-13 5.74751e-13 0)
(-7.58008e-14 6.21706e-13 0)
(4.94022e-13 9.63044e-13 0)
(6.57014e-13 8.3251e-13 0)
(5.94419e-13 8.39918e-13 0)
(5.84454e-13 8.45418e-13 0)
(6.93635e-13 8.57081e-13 0)
(5.81386e-13 8.07665e-13 0)
(2.63807e-13 8.95644e-13 0)
(-1.29052e-13 6.82057e-13 0)
(-1.84109e-13 5.9482e-13 0)
(1.86167e-13 6.20946e-13 0)
(1.16044e-13 6.87182e-13 0)
(-2.27393e-13 5.75756e-13 0)
(-3.36703e-13 7.2171e-13 0)
(-4.74592e-13 7.54443e-13 0)
(-5.80409e-13 7.74567e-13 0)
(-4.14217e-13 8.19753e-13 0)
(-3.69326e-15 8.80225e-13 0)
(1.77188e-13 9.67241e-13 0)
(1.51982e-13 8.93793e-13 0)
(1.17006e-13 8.04022e-13 0)
(-7.03804e-14 8.57108e-13 0)
(-2.19885e-13 8.24747e-13 0)
(-5.39227e-13 1.12431e-12 0)
(-6.51994e-13 1.20654e-12 0)
(-2.83465e-13 1.22238e-12 0)
(-5.61993e-14 1.30966e-12 0)
(1.93752e-13 1.26609e-12 0)
(1.65194e-13 1.05155e-12 0)
(4.12358e-14 8.54316e-13 0)
(-1.61321e-13 8.17992e-13 0)
(-2.06885e-13 8.91967e-13 0)
(-2.67436e-13 1.11e-12 0)
(-2.48447e-13 1.18583e-12 0)
(8.19906e-14 1.1147e-12 0)
(4.35795e-14 1.29007e-12 0)
(-4.20242e-14 1.24412e-12 0)
(7.01353e-14 1.15147e-12 0)
(1.63312e-13 1.1376e-12 0)
(3.44755e-13 1.33496e-12 0)
(3.27791e-13 1.41343e-12 0)
(3.01696e-13 1.34783e-12 0)
(3.33836e-13 1.33548e-12 0)
(3.4554e-13 1.06814e-12 0)
(5.89525e-13 9.78721e-13 0)
(5.03408e-13 8.41797e-13 0)
(1.27901e-13 8.21431e-13 0)
(-5.18319e-14 7.39494e-13 0)
(-3.57435e-15 8.93895e-13 0)
(-2.89263e-14 8.23033e-13 0)
(1.92306e-13 7.79024e-13 0)
(4.7561e-13 8.26015e-13 0)
(6.64195e-13 7.52425e-13 0)
(3.72151e-13 8.01926e-13 0)
(1.08509e-13 8.09668e-13 0)
(9.45272e-14 9.62489e-13 0)
(2.04935e-13 7.77223e-13 0)
(2.00798e-13 8.94914e-13 0)
(-3.69743e-14 1.01264e-12 0)
(1.77169e-13 1.11755e-12 0)
(2.56896e-13 9.46016e-13 0)
(-9.46906e-14 8.28879e-13 0)
(-2.54812e-13 7.40775e-13 0)
(-3.82422e-13 5.78961e-13 0)
(-9.6624e-14 6.28542e-13 0)
(-5.63413e-14 5.85713e-13 0)
(-2.88756e-13 7.50612e-13 0)
(-3.5381e-13 9.71359e-13 0)
(-1.93489e-13 8.05362e-13 0)
(8.52565e-14 7.79579e-13 0)
(1.15233e-13 6.97434e-13 0)
(7.27066e-14 7.68485e-13 0)
(6.76827e-14 7.34228e-13 0)
(3.5521e-14 8.0956e-13 0)
(-8.10239e-14 7.25964e-13 0)
(3.95028e-14 5.8803e-13 0)
(1.72243e-13 8.34421e-13 0)
(3.86376e-13 8.54707e-13 0)
(3.35681e-13 9.99803e-13 0)
(1.63042e-13 8.14728e-13 0)
(1.27462e-13 9.80125e-13 0)
(3.01249e-14 1.01836e-12 0)
(1.08387e-13 8.96651e-13 0)
(1.46887e-13 7.68787e-13 0)
(1.78294e-13 6.91986e-13 0)
(2.64953e-13 6.45489e-13 0)
(1.16808e-13 3.89517e-13 0)
(-2.51969e-13 4.60033e-13 0)
(-3.59787e-13 3.3997e-13 0)
(-2.39623e-13 5.847e-13 0)
(-3.02795e-13 4.14027e-13 0)
(-3.86009e-13 6.22912e-13 0)
(-3.5154e-13 8.31145e-13 0)
(-7.62241e-14 7.752e-13 0)
(7.6626e-14 8.58752e-13 0)
(-7.32049e-14 6.67088e-13 0)
(7.05255e-14 5.52456e-13 0)
(4.39561e-13 5.10331e-13 0)
(5.63675e-13 6.63119e-13 0)
(3.41902e-13 6.7881e-13 0)
(9.5503e-14 5.55191e-13 0)
(-5.65556e-15 6.3474e-13 0)
(1.49258e-13 6.58828e-13 0)
(3.81076e-14 7.13222e-13 0)
(-3.54752e-14 6.06876e-13 0)
(2.05485e-14 7.14816e-13 0)
(-1.15378e-13 5.83661e-13 0)
(-2.80917e-13 6.60061e-13 0)
(-4.83165e-13 7.56845e-13 0)
(-4.74238e-13 7.46023e-13 0)
(-4.45753e-13 9.5806e-13 0)
(-5.95945e-13 9.14091e-13 0)
(-3.75782e-13 8.31404e-13 0)
(-1.01146e-13 8.17718e-13 0)
(9.0038e-14 9.41346e-13 0)
(4.30524e-14 1.23377e-12 0)
(1.48128e-13 1.1666e-12 0)
(1.00266e-13 1.26582e-12 0)
(4.11242e-14 1.09885e-12 0)
(2.12194e-13 9.47128e-13 0)
(2.49203e-13 8.5416e-13 0)
(1.4777e-13 9.78228e-13 0)
(-3.70489e-14 8.02287e-13 0)
(-1.06758e-13 8.57069e-13 0)
(-2.43795e-13 7.91812e-13 0)
(-1.31556e-13 8.60124e-13 0)
(1.89461e-13 9.20541e-13 0)
(3.65658e-13 7.86298e-13 0)
(5.72041e-14 7.79243e-13 0)
(-2.99873e-13 6.87937e-13 0)
(-2.80761e-13 7.58455e-13 0)
(-1.38686e-14 7.93033e-13 0)
(6.98389e-14 8.85511e-13 0)
(-2.36972e-13 9.76416e-13 0)
(-1.06381e-13 9.54301e-13 0)
(-4.17297e-14 1.14782e-12 0)
(-1.57038e-13 9.70525e-13 0)
(-5.29131e-14 7.98486e-13 0)
(-6.15593e-14 7.09831e-13 0)
(1.50857e-13 7.53958e-13 0)
(1.90582e-13 7.39936e-13 0)
(3.72867e-14 8.52179e-13 0)
(-4.00223e-15 9.28829e-13 0)
(8.66046e-14 7.8471e-13 0)
(8.55949e-14 9.43721e-13 0)
(1.4448e-14 8.27674e-13 0)
(1.62534e-13 8.28392e-13 0)
(8.43932e-14 8.35857e-13 0)
(-1.18461e-13 8.84565e-13 0)
(-2.47331e-13 7.68874e-13 0)
(-3.07951e-13 5.33349e-13 0)
(9.21004e-15 7.20735e-13 0)
(3.82308e-13 7.2845e-13 0)
(1.36679e-13 8.12891e-13 0)
(-4.00681e-14 9.15037e-13 0)
(7.48424e-14 1.05592e-12 0)
(1.15019e-13 1.03052e-12 0)
(1.03991e-13 1.09083e-12 0)
(-9.00976e-14 1.04593e-12 0)
(6.73257e-15 8.30345e-13 0)
(4.67625e-14 8.67004e-13 0)
(-9.56749e-14 7.93076e-13 0)
(-1.03455e-14 6.44823e-13 0)
(1.15393e-13 6.59317e-13 0)
(3.58751e-13 6.02342e-13 0)
(2.68604e-13 5.6817e-13 0)
(1.10258e-13 7.8391e-13 0)
(5.67698e-13 1.35103e-12 0)
(7.28577e-13 1.22222e-12 0)
(5.69897e-13 1.21314e-12 0)
(3.27807e-13 1.1366e-12 0)
(5.54667e-13 1.00836e-12 0)
(5.67718e-13 8.20465e-13 0)
(1.78822e-13 7.48585e-13 0)
(-1.45963e-13 7.08647e-13 0)
(-7.44795e-14 7.85524e-13 0)
(1.32487e-13 7.75332e-13 0)
(-1.50123e-14 5.81251e-13 0)
(-3.06599e-13 5.38874e-13 0)
(-2.65237e-13 6.53487e-13 0)
(-2.36702e-13 8.42679e-13 0)
(-3.92277e-13 9.6757e-13 0)
(-3.87349e-13 1.09086e-12 0)
(-1.91521e-14 1.17833e-12 0)
(2.43976e-13 1.15894e-12 0)
(1.67748e-13 9.99958e-13 0)
(1.90193e-14 8.56222e-13 0)
(-1.26519e-13 8.72377e-13 0)
(-1.22181e-13 8.58937e-13 0)
(-3.48753e-13 1.01978e-12 0)
(-5.20506e-13 1.35876e-12 0)
(-1.87085e-13 1.45432e-12 0)
(6.49197e-14 1.58149e-12 0)
(1.09629e-13 1.56336e-12 0)
(-1.2476e-13 1.44899e-12 0)
(-2.27097e-13 1.21428e-12 0)
(-1.37277e-13 1.09088e-12 0)
(-3.14878e-14 1.13098e-12 0)
(-1.32264e-13 1.21006e-12 0)
(-2.2292e-13 1.33988e-12 0)
(1.16315e-13 1.23992e-12 0)
(1.21639e-13 1.0989e-12 0)
(-1.06994e-13 1.09424e-12 0)
(1.22511e-13 1.23774e-12 0)
(3.02906e-13 1.33265e-12 0)
(2.65397e-13 1.37404e-12 0)
(1.85742e-13 1.21182e-12 0)
(2.48817e-13 1.29336e-12 0)
(2.82885e-13 1.18045e-12 0)
(3.27804e-13 1.22149e-12 0)
(5.33273e-13 9.53692e-13 0)
(4.09732e-13 9.71558e-13 0)
(6.11507e-14 8.2428e-13 0)
(-2.72311e-14 9.62705e-13 0)
(-6.6947e-14 1.05417e-12 0)
(-1.30959e-13 1.03798e-12 0)
(1.08725e-13 9.82903e-13 0)
(4.06149e-13 9.01609e-13 0)
(6.17192e-13 8.39449e-13 0)
(4.86755e-13 6.4904e-13 0)
(2.4542e-13 8.56578e-13 0)
(5.90317e-14 8.23797e-13 0)
(1.41228e-13 8.41377e-13 0)
(1.73445e-13 6.68888e-13 0)
(6.29055e-14 6.86974e-13 0)
(2.27089e-13 9.2434e-13 0)
(4.71887e-14 7.53609e-13 0)
(-1.61971e-13 6.15205e-13 0)
(-2.7425e-13 6.3637e-13 0)
(-3.41942e-13 5.82972e-13 0)
(-1.13356e-13 6.96759e-13 0)
(-4.24963e-14 5.12766e-13 0)
(-1.83579e-13 5.9946e-13 0)
(-3.16943e-13 6.77547e-13 0)
(-7.23705e-14 8.5968e-13 0)
(1.32426e-13 9.70338e-13 0)
(2.15399e-15 8.2229e-13 0)
(1.7869e-14 6.91888e-13 0)
(1.28887e-13 7.24588e-13 0)
(1.4005e-13 7.97963e-13 0)
(-1.84825e-13 7.89085e-13 0)
(-4.62528e-14 7.97761e-13 0)
(1.95689e-13 7.76983e-13 0)
(4.41318e-13 8.26199e-13 0)
(3.82605e-13 7.94458e-13 0)
(1.69187e-13 6.91328e-13 0)
(1.94115e-13 6.63399e-13 0)
(1.1157e-14 6.77405e-13 0)
(-9.01526e-14 6.36227e-13 0)
(-4.32499e-14 4.37337e-13 0)
(9.65628e-14 4.04308e-13 0)
(1.02977e-13 2.52061e-13 0)
(2.54358e-14 1.82529e-13 0)
(-1.8746e-13 1.84194e-13 0)
(-2.29972e-13 3.27649e-13 0)
(-1.94214e-13 3.29661e-13 0)
(-2.65853e-13 2.94205e-13 0)
(-2.18454e-13 4.58789e-13 0)
(-2.90185e-13 5.59244e-13 0)
(-2.12211e-14 6.74757e-13 0)
(5.75843e-14 5.66443e-13 0)
(-1.92145e-13 5.78775e-13 0)
(5.90146e-14 6.0592e-13 0)
(4.87919e-13 6.71412e-13 0)
(5.93537e-13 5.02943e-13 0)
(2.93637e-13 3.76342e-13 0)
(7.54838e-14 2.87703e-13 0)
(5.67738e-14 5.00873e-13 0)
(1.46596e-13 5.78049e-13 0)
(4.01754e-14 4.83405e-13 0)
(6.29206e-14 5.4138e-13 0)
(8.30929e-14 5.45095e-13 0)
(-1.98957e-13 4.76888e-13 0)
(-3.63075e-13 5.04681e-13 0)
(-4.38827e-13 3.84837e-13 0)
(-3.70742e-13 5.23374e-13 0)
(-3.41492e-13 5.99779e-13 0)
(-5.60848e-13 6.89871e-13 0)
(-3.3836e-13 1.017e-12 0)
(6.00826e-15 1.10764e-12 0)
(2.45597e-13 1.26505e-12 0)
(1.18826e-13 1.20551e-12 0)
(8.29566e-14 1.24302e-12 0)
(1.03704e-13 1.18264e-12 0)
(5.3242e-14 1.28856e-12 0)
(2.00015e-13 1.13544e-12 0)
(1.9407e-13 1.01505e-12 0)
(8.56566e-14 8.64519e-13 0)
(-4.00118e-14 9.53672e-13 0)
(-1.41232e-13 1.14489e-12 0)
(-3.10002e-13 1.13338e-12 0)
(-1.94398e-13 1.18381e-12 0)
(9.57818e-15 9.6014e-13 0)
(2.32815e-13 7.31393e-13 0)
(7.91962e-14 7.33567e-13 0)
(-2.87405e-13 7.84368e-13 0)
(-1.94299e-13 7.76557e-13 0)
(-3.00203e-14 8.95845e-13 0)
(2.24017e-15 7.63936e-13 0)
(-1.7025e-13 7.21681e-13 0)
(2.00651e-14 9.45026e-13 0)
(4.98281e-14 9.86075e-13 0)
(-1.65665e-13 1.08507e-12 0)
(-1.30343e-13 1.11502e-12 0)
(-8.3653e-14 1.06199e-12 0)
(1.31527e-13 1.01643e-12 0)
(1.98444e-13 8.9556e-13 0)
(-5.07154e-14 8.61324e-13 0)
(-1.14059e-13 6.86157e-13 0)
(1.02389e-13 7.7574e-13 0)
(1.59232e-13 7.58924e-13 0)
(-7.00825e-14 7.32914e-13 0)
(1.76344e-13 8.11862e-13 0)
(2.38954e-13 7.04446e-13 0)
(-1.13269e-13 8.71179e-13 0)
(-4.39619e-13 7.62875e-13 0)
(-3.58331e-13 7.84414e-13 0)
(8.39488e-15 8.02374e-13 0)
(3.59529e-13 8.11503e-13 0)
(2.36757e-13 7.11992e-13 0)
(9.0696e-14 8.53568e-13 0)
(1.2931e-13 8.55923e-13 0)
(1.1571e-13 8.72407e-13 0)
(3.71803e-14 8.24241e-13 0)
(-2.12514e-13 8.61411e-13 0)
(-5.94566e-14 9.09013e-13 0)
(3.84937e-14 7.585e-13 0)
(-1.20736e-13 7.47946e-13 0)
(-5.81818e-14 7.00016e-13 0)
(4.36089e-14 7.7256e-13 0)
(2.97022e-13 6.81466e-13 0)
(3.95513e-13 5.43867e-13 0)
(2.15021e-13 6.67052e-13 0)
(5.37442e-13 1.12685e-12 0)
(6.40002e-13 9.96027e-13 0)
(5.53499e-13 8.57446e-13 0)
(4.03813e-13 8.51891e-13 0)
(3.73437e-13 8.76768e-13 0)
(2.68406e-13 7.26293e-13 0)
(1.61083e-13 5.56933e-13 0)
(-3.11378e-14 7.07894e-13 0)
(-9.66565e-14 6.54907e-13 0)
(-3.62439e-15 6.5846e-13 0)
(-8.04668e-14 6.16194e-13 0)
(-1.95844e-13 7.48044e-13 0)
(-1.16121e-13 6.62857e-13 0)
(-1.91057e-13 7.48798e-13 0)
(-3.68724e-13 7.23901e-13 0)
(-2.6577e-13 8.16294e-13 0)
(-3.76402e-14 9.59799e-13 0)
(2.16274e-14 9.22224e-13 0)
(-4.21603e-14 7.86949e-13 0)
(7.14292e-16 6.92117e-13 0)
(-9.03777e-14 7.1533e-13 0)
(-9.52932e-14 7.14048e-13 0)
(-8.66895e-14 7.94865e-13 0)
(-2.20893e-13 1.13287e-12 0)
(-7.3174e-14 1.21871e-12 0)
(-3.42735e-14 1.25295e-12 0)
(2.0164e-14 1.20566e-12 0)
(-1.06309e-13 1.14051e-12 0)
(-2.37312e-13 1.12644e-12 0)
(-2.16601e-13 1.22983e-12 0)
(-1.38443e-13 1.07326e-12 0)
(-1.47847e-13 9.64301e-13 0)
(-1.99241e-13 1.01457e-12 0)
(-5.95242e-14 1.01786e-12 0)
(-3.85701e-14 8.32675e-13 0)
(7.14632e-14 9.09913e-13 0)
(2.37499e-13 1.06501e-12 0)
(2.47577e-13 9.98189e-13 0)
(1.33815e-13 1.08118e-12 0)
(2.29555e-13 9.82924e-13 0)
(3.15075e-13 1.14359e-12 0)
(2.10685e-13 1.02723e-12 0)
(1.59378e-13 1.07211e-12 0)
(2.74156e-13 8.7648e-13 0)