/*--------------------------------*- C++ -*----------------------------------*\
  =========                 |
  \\      /  F ield         | OpenFOAM: The Open Source CFD Toolbox
   \\    /   O peration     | Website:  https://openfoam.org
    \\  /    A nd           | Version:  13
     \\/     M anipulation  |
\*---------------------------------------------------------------------------*/
FoamFile
{
    format      ascii;
    class       volVectorField;
    location    "0.0013";
    object      U;
}
// * * * * * * * * * * * * * * * * * * * * * * * * * * * * * * * * * * * * * //

dimensions      [0 1 -1 0 0 0 0];

internalField   nonuniform List<vector> 
33333
(
(-2.9896e-14 6.38698e-14 0)
(6.98902e-14 5.13069e-14 0)
(1.89954e-13 1.18901e-13 0)
(1.62784e-14 6.54431e-14 0)
(-1.74567e-13 1.41754e-13 0)
(-2.75996e-14 2.37809e-14 0)
(1.71443e-13 1.13426e-13 0)
(2.60556e-13 1.54398e-13 0)
(2.23226e-13 1.1711e-13 0)
(2.21393e-13 -5.06816e-14 0)
(-5.7237e-14 -7.90557e-14 0)
(-9.51415e-14 -9.32816e-14 0)
(4.55894e-14 -8.97395e-14 0)
(1.45122e-13 -1.05381e-13 0)
(4.84657e-14 -2.22421e-14 0)
(-3.36015e-15 -4.25229e-14 0)
(5.60783e-15 -8.76044e-14 0)
(-2.47891e-13 -4.37052e-14 0)
(-1.86799e-13 -4.94843e-14 0)
(-1.15948e-13 -1.47852e-13 0)
(-2.28631e-13 -2.12561e-13 0)
(1.25719e-14 -1.84449e-13 0)
(1.05294e-13 -2.24523e-13 0)
(-4.05519e-14 -1.63536e-13 0)
(-1.56223e-13 -1.92004e-13 0)
(-2.03057e-13 -1.26287e-13 0)
(-1.33331e-14 -1.55208e-13 0)
(9.8952e-14 -9.14899e-14 0)
(-2.76543e-14 -5.39619e-14 0)
(8.26192e-14 1.08281e-14 0)
(2.00206e-13 -1.87972e-13 0)
(1.05517e-13 -1.26406e-13 0)
(1.11598e-13 -1.43862e-13 0)
(6.80856e-14 -6.03561e-14 0)
(3.65343e-14 -7.79595e-14 0)
(6.88114e-14 -1.06316e-13 0)
(6.97267e-14 -2.10872e-14 0)
(2.17599e-13 6.49619e-14 0)
(2.16085e-13 -1.55407e-14 0)
(2.62986e-13 6.86337e-14 0)
(3.36006e-13 5.38655e-14 0)
(2.58127e-13 -6.20827e-14 0)
(-1.03608e-14 -1.33533e-13 0)
(9.10967e-14 -1.84609e-13 0)
(6.94294e-14 -1.40574e-13 0)
(-2.8823e-14 -2.00363e-13 0)
(1.03075e-13 -1.52485e-13 0)
(1.40369e-13 -2.28623e-13 0)
(7.78208e-14 -1.42346e-13 0)
(-3.18455e-14 -1.35048e-13 0)
(-1.59809e-13 -1.33115e-13 0)
(-4.55486e-14 -1.38196e-13 0)
(2.01042e-14 -1.20483e-13 0)
(-1.17613e-13 -8.83151e-14 0)
(-4.5494e-14 -8.31507e-14 0)
(5.86032e-14 -2.58925e-13 0)
(-7.20414e-14 -1.78344e-13 0)
(-1.00084e-13 8.67003e-15 0)
(1.09215e-13 7.03267e-14 0)
(1.00821e-13 -5.82817e-14 0)
(-1.33464e-13 3.70728e-14 0)
(-6.13623e-14 5.51591e-14 0)
(-1.76185e-14 1.34829e-13 0)
(8.76364e-14 3.39384e-14 0)
(1.3068e-13 1.08571e-14 0)
(1.01078e-13 9.99115e-14 0)
(-3.88869e-14 4.91958e-14 0)
(-1.98611e-13 8.19403e-14 0)
(-1.30675e-13 6.17657e-14 0)
(-7.04879e-14 6.53073e-14 0)
(-8.71764e-14 2.34024e-14 0)
(-1.31058e-13 7.60505e-14 0)
(-9.9104e-14 1.13469e-13 0)
(-1.59641e-13 1.70055e-13 0)
(-1.20845e-13 1.96324e-13 0)
(-1.19031e-13 8.27457e-14 0)
(-6.50907e-14 3.23852e-14 0)
(-6.50175e-14 -3.3969e-14 0)
(-1.61455e-13 6.0791e-14 0)
(-1.4486e-13 9.01623e-14 0)
(-1.44967e-13 1.28299e-13 0)
(-1.70488e-14 1.06228e-13 0)
(-1.38795e-13 4.91507e-14 0)
(-2.1581e-13 1.19698e-13 0)
(-1.30738e-13 1.17789e-13 0)
(-5.32603e-14 -6.87771e-15 0)
(-3.05853e-14 -8.93878e-14 0)
(-2.03219e-13 -1.5405e-16 0)
(-2.25666e-13 1.417e-13 0)
(-6.44131e-14 1.1928e-13 0)
(1.29906e-13 6.4822e-14 0)
(1.08821e-14 3.65669e-14 0)
(-1.57027e-13 1.05899e-13 0)
(-1.08109e-13 1.59771e-13 0)
(4.45093e-14 1.34813e-13 0)
(4.40744e-14 1.05859e-13 0)
(4.23159e-14 1.16667e-13 0)
(1.01247e-13 7.04573e-14 0)
(-2.45429e-14 2.53907e-14 0)
(-9.58143e-14 1.27017e-13 0)
(-2.64569e-14 1.12855e-13 0)
(4.22897e-14 6.73473e-14 0)
(2.53322e-14 -7.6112e-15 0)
(1.48393e-14 5.85533e-14 0)
(1.10216e-14 2.63384e-14 0)
(-6.26176e-14 5.58735e-14 0)
(1.3254e-13 5.41425e-14 0)
(1.96411e-13 -2.88147e-14 0)
(-5.40111e-15 -3.64654e-16 0)
(-4.28701e-14 4.51766e-14 0)
(1.22313e-13 2.02055e-14 0)
(-1.49136e-14 4.50286e-14 0)
(-1.14538e-13 1.51711e-13 0)
(-5.31828e-14 1.91565e-13 0)
(-3.4875e-14 2.29238e-13 0)
(-1.97949e-16 1.82638e-13 0)
(-1.43513e-13 1.44328e-13 0)
(-2.05794e-13 1.25447e-13 0)
(-1.28476e-13 1.65428e-13 0)
(-3.89462e-15 1.54096e-13 0)
(3.30741e-14 1.44598e-13 0)
(-2.41244e-15 1.09812e-13 0)
(1.2026e-14 9.93388e-14 0)
(-9.93242e-15 1.4625e-13 0)
(-6.304e-14 1.63396e-13 0)
(-4.12458e-14 1.00648e-13 0)
(4.54846e-14 -7.53914e-15 0)
(1.24036e-14 -1.01418e-13 0)
(2.13785e-14 3.38203e-14 0)
(-7.77526e-14 2.64636e-14 0)
(-3.10553e-13 1.547e-13 0)
(-9.99223e-14 2.08828e-13 0)
(-5.97123e-14 1.2414e-13 0)
(-1.26745e-13 1.48394e-13 0)
(-2.15304e-14 1.43665e-13 0)
(1.30799e-13 1.43748e-14 0)
(1.99291e-13 -2.23742e-14 0)
(7.81911e-14 8.55545e-14 0)
(1.01675e-15 1.76203e-13 0)
(9.98386e-14 2.31989e-13 0)
(1.32845e-13 1.84744e-13 0)
(-3.41346e-14 1.46921e-13 0)
(-1.49173e-13 1.97169e-13 0)
(-1.01831e-13 1.96007e-13 0)
(-3.13834e-14 7.70556e-14 0)
(-1.3994e-14 -1.8218e-17 0)
(-3.50475e-14 1.43394e-13 0)
(1.0341e-13 1.76557e-13 0)
(1.1962e-13 1.16424e-13 0)
(2.06864e-13 1.3364e-13 0)
(2.70521e-13 9.58755e-14 0)
(2.39888e-13 3.95128e-15 0)
(2.96165e-14 -4.21723e-14 0)
(-3.48445e-14 8.21625e-14 0)
(-8.4701e-14 3.23291e-14 0)
(-2.15167e-13 6.11543e-14 0)
(-1.24403e-14 7.71085e-14 0)
(6.13345e-14 1.606e-15 0)
(-5.28677e-14 1.09053e-13 0)
(2.06775e-14 1.39405e-13 0)
(1.44019e-13 -1.23164e-14 0)
(5.70805e-14 -7.56475e-14 0)
(-1.53426e-14 4.02937e-15 0)
(-7.85076e-14 6.93075e-14 0)
(2.29708e-15 1.07721e-13 0)
(2.39577e-13 5.85013e-14 0)
(6.54129e-14 7.80513e-14 0)
(6.45427e-14 1.16374e-14 0)
(1.15307e-13 1.25406e-14 0)
(1.30909e-13 -2.31313e-14 0)
(5.13913e-14 -9.05467e-14 0)
(-7.15638e-14 1.5062e-14 0)
(-4.85456e-14 7.85269e-14 0)
(1.62046e-13 7.25182e-15 0)
(2.51609e-13 2.40036e-14 0)
(1.86404e-13 -1.04593e-14 0)
(1.68109e-13 -7.83689e-14 0)
(-3.8467e-15 -9.27505e-14 0)
(-1.09313e-13 -5.66827e-15 0)
(-1.69731e-14 -4.52317e-14 0)
(1.18529e-13 2.10115e-15 0)
(5.29586e-14 -8.28994e-14 0)
(-5.00419e-14 -3.09992e-14 0)
(-2.77569e-15 -1.18033e-13 0)
(-1.10669e-13 -1.34021e-13 0)
(-2.14772e-13 -1.36972e-14 0)
(-2.26416e-13 -1.43115e-13 0)
(-2.51014e-13 -1.22399e-13 0)
(-5.56149e-14 -1.85793e-13 0)
(2.679e-14 -2.24468e-13 0)
(-1.47927e-13 -2.50194e-13 0)
(-1.65316e-13 -2.56966e-13 0)
(-1.30442e-13 -1.62189e-13 0)
(-9.28771e-15 -1.19502e-13 0)
(8.88959e-14 -2.48956e-13 0)
(6.61363e-14 -2.23304e-13 0)
(2.87927e-14 -1.05275e-13 0)
(1.28786e-13 -1.8288e-13 0)
(1.52059e-13 -2.87651e-13 0)
(2.02035e-13 -2.39405e-13 0)
(1.65403e-13 -1.60882e-13 0)
(-4.81865e-14 -1.18301e-13 0)
(9.92529e-14 -1.97813e-13 0)
(2.12967e-13 -7.81966e-14 0)
(1.66166e-13 -9.00131e-14 0)
(2.49973e-13 -7.43308e-14 0)
(3.4212e-13 -2.01615e-14 0)
(3.09493e-13 3.20958e-14 0)
(2.20704e-13 -1.30214e-13 0)
(6.15754e-14 -1.92993e-13 0)
(8.86732e-14 -1.44108e-13 0)
(-1.30988e-14 -2.52117e-13 0)
(-7.20932e-14 -2.53806e-13 0)
(5.33886e-14 -3.3533e-13 0)
(1.27236e-13 -3.93641e-13 0)
(7.79707e-14 -3.37573e-13 0)
(2.87341e-14 -3.67697e-13 0)
(-6.84136e-14 -3.31264e-13 0)
(-1.10302e-13 -2.4654e-13 0)
(-1.05956e-14 -2.99625e-13 0)
(-7.50039e-14 -1.85216e-13 0)
(-1.52892e-13 -1.06199e-13 0)
(-3.12109e-14 -1.97866e-13 0)
(1.64459e-14 -2.69375e-13 0)
(-2.2168e-14 -1.90605e-13 0)
(5.15076e-14 -1.52157e-13 0)
(9.57442e-14 -2.22117e-13 0)
(1.33678e-14 -1.44203e-13 0)
(-2.31193e-14 -4.313e-14 0)
(1.01084e-14 6.15816e-15 0)
(-2.35227e-14 1.50345e-14 0)
(1.51506e-13 -2.46626e-14 0)
(1.91422e-13 4.47235e-14 0)
(-2.71316e-14 -7.91837e-14 0)
(-1.2577e-13 -3.58267e-14 0)
(-1.2475e-13 -4.66538e-14 0)
(-1.94956e-13 5.51657e-15 0)
(-1.57018e-13 -3.87683e-14 0)
(-8.61263e-14 -7.42046e-14 0)
(-1.5748e-13 -1.23428e-13 0)
(-1.29565e-13 -9.66048e-14 0)
(-1.1089e-13 -1.01215e-15 0)
(-1.67571e-13 -7.36428e-14 0)
(-1.31136e-13 -1.44251e-13 0)
(-4.71729e-14 -1.90861e-13 0)
(-1.05191e-13 -1.17811e-13 0)
(-1.38624e-13 -1.29736e-13 0)
(-1.32871e-13 -1.10101e-13 0)
(-8.7516e-14 -8.12094e-14 0)
(-1.36375e-13 -1.50482e-13 0)
(-1.8665e-13 -1.12532e-13 0)
(-1.9391e-13 -7.67451e-14 0)
(-1.37188e-13 -9.79804e-14 0)
(-7.19226e-14 -1.57944e-13 0)
(-7.27755e-14 -1.18145e-13 0)
(-1.89981e-13 -5.74763e-15 0)
(-1.36638e-13 -1.33253e-15 0)
(6.38305e-14 8.4669e-15 0)
(7.28151e-14 -5.68607e-14 0)
(-2.43569e-14 -1.57152e-14 0)
(-8.81709e-14 6.49432e-14 0)
(1.55327e-14 8.82457e-14 0)
(5.76379e-14 -1.55187e-14 0)
(-1.08924e-15 2.99168e-14 0)
(-3.00674e-14 -1.34865e-14 0)
(9.69403e-16 -4.24595e-14 0)
(-3.05608e-14 2.41571e-14 0)
(-9.05036e-14 -2.0209e-14 0)
(-2.05043e-14 -8.87354e-14 0)
(5.93863e-14 -1.26649e-13 0)
(4.26691e-14 -6.5171e-14 0)
(1.34802e-15 -1.76598e-13 0)
(-6.30617e-14 -1.32005e-13 0)
(6.58811e-14 -5.47017e-14 0)
(1.88677e-13 -1.35135e-13 0)
(1.23991e-13 -1.87846e-13 0)
(-1.55492e-15 -8.63559e-14 0)
(3.90229e-14 -7.64562e-14 0)
(-5.6044e-15 -1.34234e-13 0)
(-7.01145e-14 -9.64319e-14 0)
(-4.07192e-14 -6.92036e-14 0)
(-5.3184e-14 -1.13428e-14 0)
(-6.84562e-15 -6.10744e-14 0)
(-6.4434e-14 -8.57817e-14 0)
(-1.2078e-13 -1.73445e-14 0)
(-6.57694e-14 4.10647e-14 0)
(-7.07921e-14 3.6626e-14 0)
(-1.82264e-15 -3.03887e-14 0)
(-5.77926e-14 -5.94435e-14 0)
(-3.44239e-14 -1.19041e-13 0)
(2.72451e-15 -8.99493e-14 0)
(-4.01025e-14 -4.44513e-14 0)
(-4.61448e-14 -9.32397e-14 0)
(-7.75969e-14 -1.3441e-13 0)
(3.23594e-15 -1.48282e-13 0)
(-1.91012e-15 -1.21839e-13 0)
(-1.1255e-13 -2.04491e-13 0)
(-2.13692e-13 -1.13005e-13 0)
(-1.16019e-13 -1.86662e-14 0)
(-2.4238e-14 -5.5869e-14 0)
(-1.0146e-13 -2.2305e-14 0)
(-5.74721e-14 1.6411e-15 0)
(3.81571e-14 -3.14168e-14 0)
(2.48018e-13 -1.01005e-13 0)
(2.00205e-13 -3.44279e-14 0)
(3.30054e-14 -1.98645e-14 0)
(4.56181e-14 2.42347e-14 0)
(7.97658e-14 -8.55795e-14 0)
(-1.40001e-14 -6.54584e-14 0)
(-1.07195e-13 -4.98325e-14 0)
(-1.56191e-13 -2.52207e-14 0)
(-1.4651e-13 -8.90823e-14 0)
(-2.90178e-16 -1.63651e-13 0)
(6.53267e-14 -9.98983e-14 0)
(4.58095e-14 -5.81038e-14 0)
(1.38599e-13 -2.01212e-14 0)
(2.47989e-13 -2.97435e-14 0)
(2.73226e-13 -1.04486e-13 0)
(2.17993e-13 -1.78542e-13 0)
(7.90778e-14 -1.73747e-13 0)
(-5.09901e-14 -8.27036e-14 0)
(-1.10208e-13 -1.47562e-13 0)
(-1.70838e-13 -1.28575e-13 0)
(-6.26813e-14 -8.55451e-15 0)
(5.42809e-14 -9.84674e-14 0)
(7.32867e-14 -4.33286e-14 0)
(-2.29586e-14 6.15746e-15 0)
(1.05244e-14 -6.04512e-14 0)
(1.36719e-13 -1.51539e-13 0)
(7.28625e-14 -5.15993e-14 0)
(-9.51482e-14 -7.20285e-14 0)
(-5.39793e-14 3.98726e-14 0)
(2.04854e-13 -1.80289e-14 0)
(1.4633e-13 -3.60276e-14 0)
(9.93869e-14 -4.85989e-14 0)
(1.06899e-13 -1.19858e-13 0)
(6.9912e-14 -1.68576e-13 0)
(1.06272e-13 -1.116e-13 0)
(3.40881e-14 -3.71666e-14 0)
(-5.97419e-14 -2.44656e-15 0)
(7.35404e-14 -3.67573e-14 0)
(2.21101e-13 -8.42126e-14 0)
(2.22055e-13 -5.1105e-14 0)
(1.72319e-13 -1.04038e-13 0)
(3.24299e-14 -2.15183e-13 0)
(-5.55152e-14 -1.51292e-13 0)
(5.73854e-14 8.83857e-15 0)
(4.48546e-14 3.58954e-14 0)
(3.18323e-15 -9.52274e-14 0)
(-2.13021e-14 -1.0849e-13 0)
(-4.41225e-14 -1.15155e-13 0)
(-1.32428e-13 -1.56737e-13 0)
(-2.07198e-13 -1.46893e-13 0)
(-2.43579e-13 -1.6397e-13 0)
(-2.16676e-13 -8.8796e-14 0)
(-1.08132e-13 -5.45996e-14 0)
(-2.65675e-14 -1.57527e-13 0)
(-1.22876e-13 -2.60229e-13 0)
(-1.00075e-13 -1.8991e-13 0)
(-1.08622e-13 -7.39264e-14 0)
(-1.17783e-13 -4.89796e-14 0)
(1.0007e-14 -2.08201e-13 0)
(1.20612e-13 -2.24847e-13 0)
(1.24604e-13 -2.24385e-13 0)
(7.79867e-14 -1.69278e-13 0)
(1.48853e-13 -1.94634e-13 0)
(2.44565e-13 -1.42407e-13 0)
(1.76971e-13 -1.07977e-13 0)
(1.11515e-14 -3.88173e-14 0)
(1.16896e-13 -2.46483e-14 0)
(1.50738e-13 -1.12825e-13 0)
(2.42847e-13 -1.35692e-13 0)
(3.06684e-13 -1.65247e-14 0)
(2.85177e-13 -8.61033e-14 0)
(2.66148e-13 -1.57293e-13 0)
(1.7679e-13 -2.15109e-13 0)
(8.03347e-14 -1.71291e-13 0)
(3.4711e-14 -1.81873e-13 0)
(-5.56781e-14 -2.53396e-13 0)
(-1.07701e-13 -1.91786e-13 0)
(-2.39768e-14 -2.62844e-13 0)
(8.33519e-14 -4.08385e-13 0)
(7.7054e-14 -4.80004e-13 0)
(-1.16764e-14 -4.38717e-13 0)
(4.67015e-15 -3.27473e-13 0)
(-3.19026e-14 -2.46684e-13 0)
(1.6342e-14 -2.73421e-13 0)
(2.21169e-14 -2.07528e-13 0)
(-7.7995e-14 -1.25482e-13 0)
(-1.22063e-13 -9.08747e-14 0)
(-1.24988e-13 -2.0317e-13 0)
(-5.81629e-14 -2.58909e-13 0)
(5.99087e-14 -2.61653e-13 0)
(1.39468e-13 -1.83565e-13 0)
(9.7529e-14 -2.22944e-13 0)
(5.68194e-14 -1.5079e-13 0)
(4.90491e-14 -1.45851e-13 0)
(7.30466e-14 -2.11146e-14 0)
(2.02278e-13 1.03508e-14 0)
(6.89629e-14 -1.04197e-13 0)
(-1.08234e-13 -2.00686e-13 0)
(-1.39563e-13 -1.97833e-13 0)
(-1.18972e-13 -2.07596e-13 0)
(-1.11732e-13 -1.52966e-13 0)
(-1.51224e-13 -1.2469e-13 0)
(-2.30231e-13 -2.39058e-13 0)
(-2.01065e-13 -2.33775e-13 0)
(-2.73283e-14 -1.95734e-13 0)
(-1.05272e-13 -1.6789e-13 0)
(-2.64046e-13 -1.44207e-13 0)
(-1.52174e-13 -1.40863e-13 0)
(-5.88802e-15 -2.00595e-13 0)
(-1.05763e-13 -2.60841e-13 0)
(-2.22286e-13 -2.17639e-13 0)
(-1.23893e-13 -1.95625e-13 0)
(-4.2742e-14 -1.44363e-13 0)
(-1.42902e-13 -2.17873e-13 0)
(-1.59123e-13 -2.18832e-13 0)
(-1.70045e-13 -1.88065e-13 0)
(-8.66038e-14 -5.65435e-14 0)
(-8.79344e-14 1.70234e-14 0)
(-9.30516e-14 -2.76103e-14 0)
(-9.90481e-14 -5.38001e-14 0)
(-8.15526e-14 7.28163e-15 0)
(5.28957e-14 7.62861e-14 0)
(1.19508e-14 -3.16991e-14 0)
(3.35967e-14 -4.27906e-14 0)
(4.63159e-15 -6.02569e-14 0)
(-2.07753e-14 -2.28645e-14 0)
(-2.8513e-14 -9.30701e-14 0)
(1.21427e-14 -9.88381e-14 0)
(2.14722e-14 -1.06949e-13 0)
(-8.46223e-15 -2.19857e-14 0)
(-1.2597e-13 -8.7947e-14 0)
(-1.53168e-13 -6.36551e-14 0)
(-2.09718e-14 -8.00643e-14 0)
(1.20886e-13 -2.17499e-14 0)
(-1.28874e-14 -1.49508e-13 0)
(-5.86893e-14 -1.63423e-13 0)
(1.9795e-14 -1.52839e-13 0)
(9.03882e-14 -1.62183e-13 0)
(1.14458e-13 -7.01369e-14 0)
(7.09457e-14 -1.34591e-13 0)
(8.89561e-15 -1.64046e-13 0)
(-6.64607e-15 -1.32831e-13 0)
(-1.87302e-14 -1.79738e-13 0)
(-7.49336e-14 -2.52375e-13 0)
(-3.13586e-15 -1.76653e-13 0)
(1.58262e-14 -8.96514e-14 0)
(-1.27324e-14 -1.24812e-13 0)
(2.65282e-14 -1.58239e-13 0)
(-3.21278e-14 -1.20863e-13 0)
(-1.04088e-13 -1.34177e-13 0)
(-1.16008e-13 -1.62144e-13 0)
(-3.08914e-14 -1.51267e-13 0)
(-1.19497e-13 -1.76555e-13 0)
(-6.43041e-14 -2.0562e-13 0)
(7.77612e-14 -1.49629e-13 0)
(-2.54684e-14 -1.88218e-13 0)
(-1.291e-13 -1.60758e-13 0)
(-2.23067e-14 -1.03433e-13 0)
(1.55807e-14 -1.05162e-13 0)
(-1.12334e-13 -1.91056e-13 0)
(-1.41445e-13 -1.81709e-13 0)
(-1.21183e-13 -1.67044e-13 0)
(-7.24738e-14 -5.63383e-14 0)
(-8.01981e-15 -3.73714e-14 0)
(-7.26772e-15 -9.80008e-14 0)
(-1.61078e-14 -5.75e-14 0)
(1.10252e-13 -8.22543e-14 0)
(1.9368e-13 -3.07679e-14 0)
(9.44349e-14 -1.21972e-13 0)
(1.1515e-14 -1.18069e-13 0)
(-1.83121e-15 -1.13133e-13 0)
(3.33739e-14 -1.19201e-13 0)
(-1.25636e-14 -1.49537e-13 0)
(-1.01478e-13 -8.77071e-14 0)
(-1.69649e-13 -7.67943e-14 0)
(-1.32266e-13 -4.6993e-14 0)
(-2.66585e-14 2.30321e-15 0)
(3.51148e-14 -7.41303e-14 0)
(1.35379e-13 -7.07855e-14 0)
(1.83037e-13 -5.36504e-14 0)
(1.61099e-13 -1.07078e-13 0)
(1.74667e-13 -1.43291e-13 0)
(2.2469e-13 -1.76831e-13 0)
(1.14783e-13 -1.71153e-13 0)
(-4.91808e-14 -1.44251e-13 0)
(-1.41373e-13 -6.43236e-14 0)
(-8.462e-14 -1.05945e-13 0)
(-4.42349e-15 -7.37285e-14 0)
(1.06508e-14 -5.16327e-14 0)
(3.06993e-14 -1.26123e-13 0)
(-3.54198e-15 -9.02255e-14 0)
(5.84492e-14 -3.92333e-14 0)
(1.18731e-13 -9.45191e-14 0)
(1.841e-14 -2.4468e-13 0)
(-2.50611e-14 -2.42605e-13 0)
(4.00824e-14 -6.31468e-14 0)
(1.51362e-13 1.52802e-14 0)
(1.2304e-13 -6.49465e-14 0)
(4.30647e-14 -4.76975e-14 0)
(8.78682e-14 -7.03133e-14 0)
(1.98207e-13 -6.89205e-14 0)
(1.48051e-13 1.65195e-14 0)
(-1.90131e-14 -7.69664e-14 0)
(-7.86371e-14 -2.52368e-14 0)
(7.03968e-14 -8.08457e-14 0)
(2.51999e-13 -4.9041e-14 0)
(2.25183e-13 -8.57505e-14 0)
(5.20546e-14 -7.38351e-14 0)
(-2.93306e-14 -1.74202e-13 0)
(9.92937e-14 -1.15729e-13 0)
(1.15602e-13 -1.28641e-13 0)
(-1.23301e-14 -1.10326e-13 0)
(-6.80388e-14 -1.2521e-13 0)
(-5.46089e-14 -1.14926e-13 0)
(-6.10646e-14 -1.44815e-13 0)
(-1.23274e-13 -1.42996e-13 0)
(-1.90494e-13 -1.14491e-13 0)
(-2.04521e-13 -9.601e-14 0)
(-1.77793e-13 -1.57201e-13 0)
(-1.22718e-13 -1.53311e-13 0)
(-1.51072e-13 -1.93778e-13 0)
(-1.50026e-13 -1.96592e-13 0)
(-1.38142e-14 -8.29619e-14 0)
(-1.59111e-14 -1.1696e-13 0)
(-1.55788e-13 -1.57419e-13 0)
(-5.46741e-14 -8.40629e-14 0)
(7.38033e-14 -6.40326e-14 0)
(8.72753e-14 -1.33171e-13 0)
(1.23804e-13 -4.95417e-14 0)
(1.90533e-13 6.75832e-15 0)
(2.63063e-13 -1.13297e-14 0)
(2.35797e-13 -9.27189e-14 0)
(9.86649e-14 -2.49121e-14 0)
(5.13082e-14 1.71501e-15 0)
(1.22016e-13 -1.05106e-13 0)
(2.57821e-13 -8.08705e-14 0)
(2.59576e-13 -1.79069e-13 0)
(1.98465e-13 -2.09416e-13 0)
(2.24824e-13 -1.95807e-13 0)
(2.10355e-13 -1.77026e-13 0)
(1.53487e-13 -1.73577e-13 0)
(-1.06747e-14 -1.08215e-13 0)
(-6.75312e-14 -1.84928e-13 0)
(-8.6447e-14 -1.33471e-13 0)
(-1.24405e-13 -2.42108e-13 0)
(-2.49326e-14 -2.62981e-13 0)
(7.9675e-14 -3.1916e-13 0)
(9.78324e-14 -3.09928e-13 0)
(6.18158e-14 -2.6207e-13 0)
(-6.6804e-14 -3.13634e-13 0)
(3.22013e-15 -2.72841e-13 0)
(4.47378e-14 -2.8357e-13 0)
(-5.07233e-14 -3.11504e-13 0)
(-9.88522e-14 -2.28892e-13 0)
(-1.20962e-13 -2.03843e-13 0)
(-2.73188e-14 -1.38122e-13 0)
(1.47331e-13 -1.18784e-13 0)
(1.65848e-13 -7.77715e-15 0)
(7.35957e-14 -4.56705e-14 0)
(-7.94602e-16 -1.08174e-13 0)
(1.10392e-13 -1.16962e-13 0)
(1.6738e-13 -4.5562e-14 0)
(8.43405e-14 -3.39448e-14 0)
(-7.70331e-14 -1.11157e-13 0)
(-1.50381e-13 -2.46602e-13 0)
(-1.2848e-13 -3.14902e-13 0)
(-7.19506e-14 -2.82945e-13 0)
(-8.30773e-14 -2.9826e-13 0)
(-1.70201e-13 -2.49967e-13 0)
(-2.22834e-13 -2.29252e-13 0)
(-1.22269e-13 -1.69698e-13 0)
(-6.1144e-14 -7.19342e-14 0)
(-9.34579e-14 -1.27675e-13 0)
(-1.62614e-13 -7.8405e-14 0)
(-1.78694e-13 -3.08175e-14 0)
(-1.45113e-13 -3.46125e-14 0)
(-1.20127e-13 -1.17439e-13 0)
(-1.11434e-13 -6.76734e-14 0)
(-9.27286e-14 -6.9649e-14 0)
(-8.50795e-14 -1.30659e-13 0)
(-2.01455e-13 -1.6782e-13 0)
(-1.80358e-13 -2.37997e-13 0)
(-6.31338e-14 -2.25506e-13 0)
(5.52395e-15 -1.69047e-13 0)
(-7.51935e-14 -1.09404e-13 0)
(-1.04645e-13 -8.95013e-14 0)
(-1.11584e-13 -1.33287e-13 0)
(-4.57671e-14 -6.80502e-14 0)
(5.24263e-15 -9.35967e-14 0)
(-9.57615e-15 -8.84444e-14 0)
(1.73674e-15 -1.33716e-13 0)
(-2.55744e-14 -1.58696e-13 0)
(6.37512e-15 -1.46445e-13 0)
(-3.07311e-14 -8.78283e-14 0)
(-5.88743e-14 -1.77751e-13 0)
(4.62551e-14 -1.54675e-13 0)
(1.76153e-14 -9.93722e-14 0)
(-1.1893e-13 -1.40957e-13 0)
(-6.88478e-14 -1.01604e-13 0)
(4.75116e-14 -7.47976e-14 0)
(-2.21122e-14 -6.59299e-14 0)
(-9.34166e-14 -1.74356e-13 0)
(-1.73747e-14 -1.6715e-13 0)
(-7.93853e-15 -2.05655e-13 0)
(7.92055e-14 -2.36513e-13 0)
(1.49535e-13 -2.12689e-13 0)
(3.68933e-14 -2.12447e-13 0)
(2.47095e-14 -2.74199e-13 0)
(2.73546e-14 -2.29893e-13 0)
(-6.39311e-14 -2.19177e-13 0)
(-3.30252e-14 -2.74054e-13 0)
(9.62444e-14 -2.35507e-13 0)
(1.58673e-14 -2.35773e-13 0)
(-3.2699e-14 -1.8499e-13 0)
(-4.20765e-14 -2.00534e-13 0)
(-9.66134e-14 -2.30015e-13 0)
(-1.39934e-13 -2.50673e-13 0)
(-7.74262e-14 -1.76907e-13 0)
(-2.28515e-14 -1.13033e-13 0)
(-8.78482e-14 -1.6663e-13 0)
(7.89045e-15 -1.2739e-13 0)
(3.8144e-14 -5.09479e-14 0)
(-7.11284e-14 -1.37122e-13 0)
(-2.87036e-14 -6.53672e-14 0)
(-3.84607e-14 -1.03336e-13 0)
(-9.61718e-14 -7.31962e-14 0)
(-1.02196e-13 -1.07972e-13 0)
(-9.61439e-14 -7.36706e-14 0)
(-6.76599e-14 -1.23593e-13 0)
(-1.75632e-14 -8.82102e-14 0)
(-8.36892e-14 -9.68884e-14 0)
(-5.79753e-14 -1.81935e-13 0)
(2.84727e-15 -1.90391e-13 0)
(8.52392e-14 -1.73133e-13 0)
(1.66336e-13 -1.95144e-13 0)
(1.28322e-13 -2.30293e-13 0)
(5.69417e-14 -1.91444e-13 0)
(7.50164e-15 -1.22563e-13 0)
(4.59049e-14 -7.00887e-14 0)
(1.75787e-14 -8.24628e-14 0)
(-3.51098e-14 -9.58075e-14 0)
(-1.43601e-13 -9.33845e-14 0)
(-1.35072e-13 -8.29322e-14 0)
(-4.53264e-14 -5.93786e-14 0)
(-1.05167e-14 -1.16036e-13 0)
(8.3843e-14 -1.21182e-13 0)
(1.41455e-13 -1.32904e-13 0)
(1.74549e-13 -1.59494e-13 0)
(1.68698e-13 -1.4821e-13 0)
(1.8762e-13 -1.98026e-13 0)
(1.30463e-13 -1.34858e-13 0)
(2.24008e-14 -1.46894e-13 0)
(-1.0504e-13 -2.34617e-14 0)
(-1.16249e-13 -3.15097e-14 0)
(-4.3946e-14 -1.13557e-13 0)
(-1.26521e-14 -9.31686e-14 0)
(4.86392e-14 -1.30593e-13 0)
(6.76193e-14 -1.67715e-13 0)
(1.76408e-14 -1.43783e-13 0)
(-1.59038e-14 -1.81744e-13 0)
(-6.17291e-14 -2.26705e-13 0)
(4.87257e-14 -2.16183e-13 0)
(2.13324e-13 -1.63831e-13 0)
(1.69923e-13 -1.20204e-13 0)
(6.71783e-14 -1.59701e-13 0)
(2.42559e-14 2.43158e-14 0)
(7.53191e-14 1.3727e-13 0)
(2.1738e-13 9.32993e-14 0)
(7.84441e-14 7.6574e-15 0)
(-3.33929e-14 -7.56177e-14 0)
(-4.20906e-14 -1.02707e-13 0)
(4.08258e-14 -9.19544e-14 0)
(1.62856e-13 -6.42197e-14 0)
(1.87691e-13 -1.69144e-13 0)
(7.67846e-14 -2.05426e-13 0)
(9.85825e-15 -1.47396e-13 0)
(5.82475e-14 -2.33561e-13 0)
(1.17107e-13 -2.41244e-13 0)
(6.29747e-14 -1.70448e-13 0)
(-4.10113e-14 -1.25045e-13 0)
(-3.00239e-14 -1.63691e-13 0)
(-7.83083e-14 -1.77327e-13 0)
(-1.03381e-13 -2.30622e-13 0)
(-1.75371e-13 -1.50237e-13 0)
(-2.51968e-13 -1.2881e-13 0)
(-2.54038e-13 -1.76783e-13 0)
(-1.34656e-13 -1.65387e-13 0)
(-7.38338e-14 -1.11356e-13 0)
(-5.57214e-14 -4.28115e-14 0)
(-6.14537e-15 -1.26382e-13 0)
(-1.45756e-13 -2.51928e-13 0)
(-1.27693e-13 -3.19072e-13 0)
(6.52298e-14 -2.7265e-13 0)
(5.23943e-14 -2.04637e-13 0)
(1.18169e-13 -1.05552e-13 0)
(1.8809e-13 -1.15452e-13 0)
(1.55477e-13 -1.08902e-13 0)
(1.79599e-13 -1.10884e-13 0)
(1.90669e-13 -1.93871e-13 0)
(1.63637e-13 -2.3767e-13 0)
(5.37368e-14 -1.93543e-13 0)
(8.01176e-14 -1.32935e-13 0)
(1.89569e-13 -1.06851e-13 0)
(2.06479e-13 -2.02463e-13 0)
(2.70606e-13 -3.13823e-13 0)
(2.7143e-13 -2.70615e-13 0)
(2.02744e-13 -2.86795e-13 0)
(1.54332e-13 -3.42414e-13 0)
(2.20476e-14 -3.23441e-13 0)
(-9.44689e-14 -2.83778e-13 0)
(-1.60292e-13 -2.40701e-13 0)
(-1.00121e-13 -2.73949e-13 0)
(3.24523e-14 -1.47049e-13 0)
(3.2119e-14 -9.52231e-14 0)
(7.97289e-15 -1.5865e-13 0)
(-2.10678e-14 -2.75246e-13 0)
(-2.58644e-14 -3.35583e-13 0)
(2.59516e-14 -3.21766e-13 0)
(-1.93833e-14 -4.53709e-13 0)
(-5.90686e-14 -4.24399e-13 0)
(-2.13692e-14 -4.54327e-13 0)
(-2.02515e-14 -2.86572e-13 0)
(8.78339e-14 -1.12744e-13 0)
(1.90684e-13 -8.01454e-14 0)
(1.67145e-13 -8.42336e-14 0)
(3.68868e-14 -1.08538e-13 0)
(-4.78288e-14 -8.12656e-14 0)
(1.07483e-13 -1.51737e-13 0)
(1.68207e-13 -2.61856e-13 0)
(1.24388e-13 -1.80524e-13 0)
(-1.24258e-13 -1.77362e-13 0)
(-3.03468e-13 -2.34165e-13 0)
(-2.27277e-13 -3.28404e-13 0)
(-9.10774e-14 -3.2797e-13 0)
(-1.95574e-14 -3.42485e-13 0)
(-6.65792e-14 -2.93086e-13 0)
(-1.47725e-13 -1.64219e-13 0)
(-3.05694e-14 -1.33232e-13 0)
(-1.41485e-14 -9.52594e-14 0)
(-1.24543e-13 -5.63036e-14 0)
(-1.22608e-13 -3.25781e-14 0)
(-1.45377e-13 -7.33597e-14 0)
(-1.32065e-13 2.36932e-14 0)
(-1.58065e-13 4.01327e-16 0)
(-1.20296e-13 3.90284e-15 0)
(-1.80335e-13 -1.59048e-14 0)
(-1.39561e-13 -7.40267e-14 0)
(-2.28408e-13 -1.05944e-13 0)
(-2.09884e-13 -1.86322e-13 0)
(-6.67516e-14 -1.62799e-13 0)
(2.71546e-14 -2.23308e-13 0)
(-2.54293e-14 -2.3766e-13 0)
(-1.20077e-13 -1.65832e-13 0)
(-1.17127e-13 -9.7381e-14 0)
(-3.20153e-14 -1.46596e-13 0)
(6.83993e-14 -2.34858e-13 0)
(-1.25689e-14 -1.61755e-13 0)
(-6.50812e-14 -2.03609e-13 0)
(-9.8768e-16 -1.54444e-13 0)
(5.8725e-14 -1.11631e-13 0)
(-1.56727e-14 -8.68666e-14 0)
(-7.62829e-14 -1.08795e-13 0)
(4.9821e-14 -1.45223e-13 0)
(4.1734e-14 -1.90855e-13 0)
(-5.58166e-14 -1.47789e-13 0)
(-6.21483e-14 -1.234e-13 0)
(7.38396e-15 -9.96875e-14 0)
(-8.80914e-14 -1.7187e-13 0)
(-1.06642e-13 -1.73632e-13 0)
(-1.97457e-14 -1.43572e-13 0)
(-4.16215e-14 -1.59257e-13 0)
(7.4457e-14 -2.10972e-13 0)
(8.71624e-14 -3.45181e-13 0)
(1.06968e-14 -3.28436e-13 0)
(4.16208e-14 -2.79144e-13 0)
(4.9823e-14 -2.40241e-13 0)
(-5.97055e-14 -2.4553e-13 0)
(-3.67722e-14 -2.15414e-13 0)
(3.87322e-14 -2.55331e-13 0)
(5.51601e-14 -2.13501e-13 0)
(-2.81027e-14 -2.31042e-13 0)
(-9.38826e-14 -2.70625e-13 0)
(-9.82385e-14 -3.14028e-13 0)
(-1.81874e-14 -2.47655e-13 0)
(1.37181e-14 -1.18596e-13 0)
(-5.20419e-14 -1.13245e-13 0)
(-1.04659e-13 -9.22124e-14 0)
(6.47591e-14 -5.74228e-14 0)
(2.83049e-14 -1.2192e-13 0)
(-3.29966e-14 -1.15099e-13 0)
(-6.97678e-14 -1.17526e-13 0)
(-5.30801e-14 -1.49629e-13 0)
(-1.58972e-14 -5.28124e-14 0)
(-8.64519e-14 -7.31602e-15 0)
(-1.51381e-13 -4.79807e-14 0)
(-1.58912e-13 -1.08412e-13 0)
(-8.61353e-14 -1.96822e-13 0)
(-1.55588e-13 -2.18774e-13 0)
(-1.01876e-13 -1.7873e-13 0)
(3.80775e-14 -2.42526e-13 0)
(1.31746e-13 -2.61064e-13 0)
(1.50642e-13 -2.93579e-13 0)
(9.38377e-14 -2.34318e-13 0)
(1.42431e-13 -1.87318e-13 0)
(7.65806e-14 -9.01958e-14 0)
(8.94785e-14 -3.83893e-14 0)
(-3.91898e-14 -2.71597e-14 0)
(-1.15674e-13 -1.40255e-13 0)
(-1.3481e-13 -2.41859e-13 0)
(-8.7287e-14 -1.87141e-13 0)
(-2.69875e-14 -2.22074e-13 0)
(-1.23531e-14 -1.22961e-13 0)
(8.89591e-14 -1.49916e-13 0)
(1.57314e-13 -8.63906e-14 0)
(1.59609e-13 -6.99986e-14 0)
(1.45754e-13 -1.15556e-13 0)
(1.92908e-13 -1.18933e-13 0)
(1.49721e-13 -9.01676e-14 0)
(5.25627e-14 -9.76041e-14 0)
(-2.77685e-14 -6.3916e-14 0)
(-1.83646e-13 2.17762e-14 0)
(-7.3613e-14 -7.06372e-14 0)
(7.50761e-15 -1.28075e-13 0)
(-2.50492e-14 -9.64563e-14 0)
(-1.64041e-14 -1.84594e-13 0)
(5.01793e-14 -2.55069e-13 0)
(7.6078e-15 -2.73552e-13 0)
(-3.29309e-14 -1.59673e-13 0)
(5.10084e-14 -1.20413e-13 0)
(1.79361e-13 -2.02738e-13 0)
(1.75766e-13 -2.75766e-13 0)
(6.33564e-14 -2.26464e-13 0)
(6.86639e-14 -5.26093e-15 0)
(1.56734e-13 -2.66045e-14 0)
(1.31845e-13 -6.44754e-14 0)
(2.81006e-14 -1.38907e-13 0)
(-1.5276e-13 -1.15047e-13 0)
(-6.37737e-14 -1.68094e-13 0)
(1.04806e-13 -1.39999e-13 0)
(1.68771e-13 -2.1709e-13 0)
(9.87462e-14 -2.21457e-13 0)
(6.06398e-14 -2.3513e-13 0)
(-1.09479e-14 -2.1528e-13 0)
(4.72161e-14 -2.26927e-13 0)
(1.74155e-13 -1.59052e-13 0)
(9.89997e-14 -2.61007e-13 0)
(-7.39435e-14 -1.83833e-13 0)
(-7.4861e-14 -1.66808e-13 0)
(-6.80098e-14 -2.37873e-13 0)
(-7.08401e-14 -3.10633e-13 0)
(-1.02564e-13 -1.92507e-13 0)
(-2.19962e-13 -1.83454e-13 0)
(-2.26939e-13 -2.22341e-14 0)
(-8.37466e-14 2.01449e-14 0)
(-2.18831e-14 -4.89435e-15 0)
(-1.36426e-13 -2.48866e-14 0)
(-1.58995e-13 -1.1348e-13 0)
(-1.44749e-13 -2.64598e-13 0)
(-1.38417e-13 -1.51406e-13 0)
(1.71299e-14 -2.35996e-13 0)
(1.75324e-13 -2.44443e-13 0)
(1.67745e-13 -1.37295e-13 0)
(1.42374e-13 -1.80244e-13 0)
(1.9724e-13 -2.12865e-13 0)
(1.68776e-13 -2.30155e-13 0)
(1.0914e-13 -2.0921e-13 0)
(8.17298e-14 -2.85339e-13 0)
(1.69969e-13 -3.13782e-13 0)
(1.89167e-13 -1.47982e-13 0)
(2.13017e-13 -1.5932e-13 0)
(1.01281e-13 -2.08859e-13 0)
(1.53352e-13 -3.28354e-13 0)
(2.7091e-13 -3.95201e-13 0)
(1.82198e-13 -3.88951e-13 0)
(9.21858e-14 -4.16719e-13 0)
(-1.35949e-14 -3.40315e-13 0)
(-2.91891e-14 -3.3493e-13 0)
(-9.20496e-14 -2.7787e-13 0)
(-6.69562e-14 -2.28721e-13 0)
(1.16044e-13 -2.30233e-13 0)
(5.43625e-14 -1.84875e-13 0)
(-4.48442e-14 -1.31944e-13 0)
(-5.52086e-14 -2.01989e-13 0)
(-1.18825e-13 -2.28935e-13 0)
(-1.43134e-13 -3.87499e-13 0)
(-3.17024e-14 -4.11595e-13 0)
(-3.67357e-14 -3.4703e-13 0)
(-6.11566e-14 -3.74439e-13 0)
(1.09207e-13 -3.24566e-13 0)
(2.07977e-13 -3.2753e-13 0)
(2.1421e-13 -2.8491e-13 0)
(1.37376e-13 -2.44569e-13 0)
(5.65291e-14 -2.67645e-13 0)
(-8.24495e-15 -1.49409e-13 0)
(-3.22059e-14 -2.23727e-13 0)
(1.24411e-13 -2.85861e-13 0)
(1.44053e-13 -2.48316e-13 0)
(-9.40827e-14 -2.64047e-13 0)
(-2.90512e-13 -2.78485e-13 0)
(-2.26214e-13 -2.49895e-13 0)
(-1.19445e-13 -2.15123e-13 0)
(-6.90494e-14 -1.96081e-13 0)
(-3.65056e-15 -2.12488e-13 0)
(-1.95722e-14 -1.41239e-13 0)
(-3.11133e-15 -7.2415e-14 0)
(-8.55608e-15 -9.09529e-14 0)
(-8.60958e-14 -9.1396e-14 0)
(-1.89766e-13 -1.00405e-13 0)
(-1.63146e-13 -1.14991e-13 0)
(-6.77489e-14 -1.22971e-13 0)
(-1.24415e-13 -1.34563e-13 0)
(-1.14871e-13 -1.79461e-13 0)
(-1.38828e-13 -1.57156e-13 0)
(-1.96638e-13 -1.35226e-13 0)
(-2.60219e-13 -1.2366e-13 0)
(-2.14193e-13 -9.22341e-14 0)
(-7.73044e-14 -9.18687e-14 0)
(-5.21578e-14 -1.36027e-13 0)
(-2.77416e-15 -1.58754e-13 0)
(-2.56047e-15 -9.44969e-14 0)
(-1.07143e-13 -2.33489e-14 0)
(-1.29401e-13 -2.09289e-14 0)
(1.63136e-14 -4.77697e-14 0)
(2.51485e-14 -1.11991e-13 0)
(-5.43248e-14 -1.31805e-13 0)
(1.91388e-14 -1.15897e-13 0)
(9.63699e-14 -1.52916e-13 0)
(-3.71955e-14 -1.23148e-13 0)
(-1.26236e-13 -4.17723e-14 0)
(-4.21663e-16 -5.05305e-14 0)
(6.7166e-14 -1.34702e-13 0)
(-2.63869e-14 -8.58462e-14 0)
(-5.93207e-14 -1.40503e-13 0)
(-2.31609e-14 -1.15621e-13 0)
(-9.19893e-14 -2.01202e-13 0)
(-6.3069e-14 -1.62946e-13 0)
(-1.52711e-14 -1.76587e-13 0)
(-8.12292e-14 -1.60751e-13 0)
(-2.29469e-14 -1.51184e-13 0)
(9.23781e-14 -2.30037e-13 0)
(9.29387e-14 -2.62464e-13 0)
(6.94942e-14 -2.4898e-13 0)
(5.73268e-14 -2.87221e-13 0)
(-4.2479e-14 -2.32847e-13 0)
(-4.92844e-14 -1.56888e-13 0)
(6.52722e-14 -1.63848e-13 0)
(2.16331e-14 -1.22905e-13 0)
(-7.13831e-14 -1.64903e-13 0)
(-8.56472e-14 -1.8785e-13 0)
(-6.94181e-14 -1.5686e-13 0)
(8.34355e-15 -1.79338e-13 0)
(5.81694e-14 -2.13199e-13 0)
(-5.68934e-14 -2.43717e-13 0)
(-5.26251e-14 -2.14995e-13 0)
(2.68815e-14 -1.75016e-13 0)
(-3.25602e-14 -1.59231e-13 0)
(-3.35118e-14 -1.12814e-13 0)
(-3.93316e-14 -1.69125e-13 0)
(1.38288e-14 -8.01221e-14 0)
(4.13115e-14 -5.08019e-14 0)
(-1.37129e-13 -9.32036e-14 0)
(-1.84513e-13 -1.68321e-13 0)
(-2.01004e-13 -1.90008e-13 0)
(-1.46491e-13 -2.21698e-13 0)
(-1.05315e-13 -2.47256e-13 0)
(-1.04989e-13 -2.07568e-13 0)
(-3.40007e-14 -2.08475e-13 0)
(6.91752e-14 -2.34664e-13 0)
(1.74998e-13 -2.06556e-13 0)
(2.2429e-13 -1.76312e-13 0)
(2.02819e-13 -5.29755e-14 0)
(1.39278e-13 -4.83444e-14 0)
(6.77e-14 -3.69089e-14 0)
(-9.77709e-14 -9.04515e-14 0)
(-2.0657e-13 -5.89038e-14 0)
(-1.62782e-13 -1.12322e-13 0)
(-8.98016e-14 -8.59296e-14 0)
(-8.31831e-15 -1.02143e-13 0)
(4.22326e-14 -4.01831e-14 0)
(1.14718e-13 1.91826e-14 0)
(1.85919e-13 5.47429e-14 0)
(9.13604e-14 -4.03745e-14 0)
(1.19457e-13 -9.72289e-14 0)
(1.8385e-13 -7.06258e-14 0)
(1.22693e-13 -7.6046e-14 0)
(6.40348e-14 -1.18558e-13 0)
(1.69174e-14 -1.74411e-13 0)
(-1.50926e-13 -1.18022e-13 0)
(-1.53274e-13 -3.11342e-14 0)
(2.78231e-16 -8.91741e-14 0)
(1.242e-14 -1.41618e-13 0)
(-6.79847e-14 -1.83616e-13 0)
(-9.24919e-14 -1.75926e-13 0)
(3.78546e-14 -2.16579e-13 0)
(8.62599e-14 -2.09292e-13 0)
(6.21661e-14 -1.73944e-13 0)
(6.85159e-14 -2.41241e-13 0)
(1.65049e-13 -1.8231e-13 0)
(1.26252e-13 -1.79756e-13 0)
(1.50983e-13 -1.19985e-13 0)
(5.68886e-14 -2.0964e-13 0)