/*--------------------------------*- C++ -*----------------------------------*\
  =========                 |
  \\      /  F ield         | OpenFOAM: The Open Source CFD Toolbox
   \\    /   O peration     | Website:  https://openfoam.org
    \\  /    A nd           | Version:  13
     \\/     M anipulation  |
\*---------------------------------------------------------------------------*/
FoamFile
{
    format      ascii;
    class       surfaceScalarField;
    location    "0.002";
    object      phi;
}
// * * * * * * * * * * * * * * * * * * * * * * * * * * * * * * * * * * * * * //

dimensions      [1 0 -1 0 0 0 0];

internalField   nonuniform List<scalar> 
66300
(
0.823304
-2.94627e-05
0.821162
-3.81247e-05
0.819056
-3.48898e-05
0.816994
-2.7652e-05
0.814977
-1.95045e-05
0.813002
-1.2636e-05
0.811071
-8.33906e-06
0.809195
-6.39123e-06
0.807384
-5.91817e-06
0.805649
-6.22314e-06
0.803991
-6.572e-06
0.802394
-6.77649e-06
0.800823
-6.87093e-06
0.799235
-6.87321e-06
0.797596
-6.78416e-06
0.7959
-6.71094e-06
0.794172
-6.65249e-06
0.792446
-6.6011e-06
0.790748
-6.55055e-06
0.789094
-6.50513e-06
0.787498
-6.47075e-06
0.785963
-6.44791e-06
0.784494
-6.42615e-06
0.783102
-6.39752e-06
0.781764
-6.41363e-06
0.780236
-6.55905e-06
0.777619
-6.74533e-06
0.770625
-6.79494e-06
0.746693
-6.64609e-06
0.662274
-6.19172e-06
0.426121
-4.96925e-06
0.110543
-2.32771e-06
0.00545146
-4.08417e-07
3.24202e-05
-1.70169e-08
1.7102e-08
-9.16296e-11
1.07064e-12
-3.475e-14
-8.32667e-16
1.11022e-15
-1.27676e-15
2.77556e-16
-7.21645e-16
1.11022e-15
-2.77556e-16
1.33227e-15
-5.55112e-17
1.27676e-15
3.33067e-16
9.99201e-16
6.66134e-16
1.38778e-15
-6.10623e-16
3.33067e-16
-3.33067e-16
7.77156e-16
-2.22045e-16
3.88578e-16
0
9.4369e-16
-1.66533e-16
8.32667e-16
-5.55112e-17
1.05471e-15
2.77556e-16
1.16573e-15
-4.996e-16
1.11022e-15
0
1.38778e-15
-6.66134e-16
1.22125e-15
-3.88578e-16
5.55112e-16
-3.88578e-16
1.66533e-16
8.88178e-16
4.996e-16
1.11022e-15
-1.11022e-16
4.44089e-16
-1.66533e-16
1.11022e-16
4.996e-16
-1.11022e-16
1.05471e-15
-1.16573e-15
3.88578e-16
-9.99201e-16
1.16573e-15
-1.22125e-15
1.05471e-15
-1.16573e-15
8.32667e-16
-6.66134e-16
1.05471e-15
-5.55112e-16
1.27676e-15
-1.66533e-16
1.33227e-15
-7.21645e-16
9.99201e-16
-5.55112e-16
1.22125e-15
-7.21645e-16
1.22125e-15
-1.4988e-15
4.996e-16
-8.32667e-16
1.05471e-15
-1.11022e-15
1.27676e-15
-6.10623e-16
1.22125e-15
1.11022e-16
9.99201e-16
2.22045e-16
4.996e-16
-1.60982e-15
3.33067e-16
-1.38778e-15
1.05471e-15
-1.16573e-15
9.99201e-16
-6.10623e-16
9.99201e-16
-3.88578e-16
1.05471e-15
0
1.22125e-15
-2.77556e-16
9.99201e-16
2.22045e-16
1.27676e-15
-5.55112e-17
7.21645e-16
2.77556e-16
9.99201e-16
7.21645e-16
1.05471e-15
-2.22045e-16
1.22125e-15
5.55112e-17
1.55431e-15
5.55112e-17
1.16573e-15
5.55112e-17
1.33227e-15
2.77556e-16
1.05471e-15
-7.21645e-16
7.77156e-16
-1.66533e-16
1.16573e-15
-9.4369e-16
9.4369e-16
-4.44089e-16
8.88178e-16
-3.88578e-16
1.22125e-15
-3.33067e-16
2.77556e-16
-7.21645e-16
2.22045e-16
3.88578e-16
6.10623e-16
-9.4369e-16
5.55112e-17
0
9.4369e-16
3.33067e-16
1.4988e-15
6.10623e-16
1.44329e-15
1.66533e-16
1.22125e-15
3.88578e-16
1.44329e-15
1.66533e-16
1.55431e-15
3.88578e-16
1.11022e-15
1.66533e-16
1.33227e-15
3.88578e-16
1.33227e-15
9.99201e-16
1.27676e-15
5.55112e-16
1.16573e-15
1.38778e-15
1.05471e-15
5.55112e-16
3.33067e-16
9.4369e-16
9.99201e-16
1.11022e-15
1.27676e-15
1.60982e-15
1.22125e-15
1.66533e-16
1.16573e-15
6.66134e-16
1.27676e-15
-4.44089e-16
6.10623e-16
-5.55112e-16
9.99201e-16
-5.55112e-16
9.4369e-16
2.77556e-16
8.32667e-16
-4.996e-16
6.66134e-16
-1.66533e-16
6.66134e-16
-9.99201e-16
4.996e-16
-4.44089e-16
9.4369e-16
-3.88578e-16
1.4988e-15
0
1.4988e-15
-3.88578e-16
9.99201e-16
2.77556e-16
1.27676e-15
5.55112e-17
7.21645e-16
2.77556e-16
9.99201e-16
-2.77556e-16
1.16573e-15
-5.55112e-17
1.33227e-15
1.11022e-16
9.4369e-16
0
1.05471e-15
0
9.99201e-16
-1.66533e-16
9.4369e-16
4.44089e-16
1.33227e-15
9.4369e-16
9.99201e-16
1.22125e-15
1.22125e-15
5.55112e-16
9.4369e-16
1.11022e-16
1.05471e-15
-3.88578e-16
7.21645e-16
5.55112e-17
1.66533e-16
-8.88178e-16
-5.55112e-16
4.44089e-16
3.88578e-16
-4.44089e-16
-1.66533e-16
-1.4988e-15
-3.88578e-16
-1.4988e-15
4.996e-16
-5.55112e-16
9.4369e-16
-2.77556e-16
1.38778e-15
1.11022e-16
1.11022e-15
-6.10623e-16
4.996e-16
-1.11022e-16
1.22125e-15
-2.22045e-16
1.11022e-15
1.11022e-16
1.66533e-15
1.66533e-16
1.55431e-15
7.77156e-16
1.11022e-15
9.4369e-16
9.4369e-16
8.88178e-16
6.10623e-16
8.32667e-16
7.77156e-16
5.55112e-17
8.32667e-16
4.44089e-16
1.22125e-15
4.996e-16
1.27676e-15
1.4988e-15
0.823563
-3.05683e-05
0.821419
-5.13166e-05
0.819308
-5.32745e-05
0.817229
-3.74125e-05
0.815191
-2.34742e-05
0.813197
-1.35765e-05
0.811252
-7.8829e-06
0.809365
-5.40124e-06
0.807546
-4.99873e-06
0.805804
-5.44591e-06
0.804139
-5.96359e-06
0.802535
-6.32956e-06
0.800957
-6.53803e-06
0.799361
-6.43762e-06
0.797715
-6.31118e-06
0.796012
-6.26543e-06
0.794277
-6.15657e-06
0.792544
-6.08606e-06
0.790838
-6.02803e-06
0.789177
-5.97899e-06
0.787574
-5.94344e-06
0.786032
-5.91874e-06
0.784556
-5.89566e-06
0.783156
-5.8872e-06
0.781811
-5.94597e-06
0.780277
-6.08016e-06
0.777652
-6.18087e-06
0.77065
-6.18425e-06
0.746711
-6.05769e-06
0.662285
-5.56983e-06
0.426126
-4.00013e-06
0.110545
-1.73988e-06
0.00545162
-2.58024e-07
3.24215e-05
-8.43129e-09
1.71029e-08
-3.97407e-11
1.06959e-12
-1.62648e-14
-8.32667e-16
1.38778e-15
-8.88178e-16
1.05471e-15
-9.4369e-16
4.996e-16
1.66533e-16
1.05471e-15
-3.33067e-16
-5.55112e-17
4.996e-16
8.88178e-16
5.55112e-17
1.38778e-15
-3.33067e-16
9.99201e-16
-9.4369e-16
7.21645e-16
1.66533e-16
1.05471e-15
1.11022e-16
6.10623e-16
3.88578e-16
8.32667e-16
5.55112e-17
7.21645e-16
1.66533e-16
1.33227e-15
-3.33067e-16
1.55431e-15
5.55112e-17
1.38778e-15
-1.22125e-15
9.4369e-16
-4.996e-16
1.38778e-15
0
1.33227e-15
3.33067e-16
1.05471e-15
1.05471e-15
6.66134e-16
1.27676e-15
3.88578e-16
6.66134e-16
5.55112e-17
-4.44089e-16
1.05471e-15
-7.21645e-16
8.88178e-16
-1.44329e-15
1.27676e-15
-1.38778e-15
1.33227e-15
-8.88178e-16
1.38778e-15
-4.996e-16
1.66533e-15
-7.77156e-16
1.55431e-15
-2.77556e-16
1.94289e-15
-7.21645e-16
1.72085e-15
-2.77556e-16
1.66533e-15
-1.44329e-15
1.22125e-15
-9.4369e-16
1.44329e-15
-9.4369e-16
8.88178e-16
-1.22125e-15
1.05471e-15
-8.88178e-16
8.32667e-16
-5.55112e-17
1.44329e-15
2.22045e-16
1.9984e-15
-8.88178e-16
1.33227e-15
-1.60982e-15
1.33227e-15
-1.38778e-15
1.55431e-15
-6.66134e-16
1.72085e-15
-6.10623e-16
1.05471e-15
-3.88578e-16
1.27676e-15
5.55112e-17
1.88738e-15
-2.77556e-16
1.72085e-15
-1.11022e-16
2.05391e-15
4.44089e-16
1.88738e-15
7.77156e-16
1.77636e-15
3.33067e-16
1.22125e-15
-1.66533e-16
7.21645e-16
4.44089e-16
1.55431e-15
-2.22045e-16
8.32667e-16
5.55112e-17
1.16573e-15
-2.77556e-16
1.33227e-15
-5.55112e-16
1.77636e-15
-1.27676e-15
1.55431e-15
-6.10623e-16
1.9984e-15
-1.16573e-15
1.55431e-15
-5.55112e-16
1.4988e-15
-4.44089e-16
1.77636e-15
2.22045e-16
1.72085e-15
2.22045e-16
1.66533e-15
4.996e-16
1.9984e-15
1.11022e-16
2.77556e-15
3.88578e-16
2.83107e-15
3.88578e-16
2.44249e-15
7.21645e-16
1.27676e-15
0
1.16573e-15
8.32667e-16
1.38778e-15
3.88578e-16
1.60982e-15
2.22045e-16
1.83187e-15
7.77156e-16
2.27596e-15
3.33067e-16
1.94289e-15
7.21645e-16
1.83187e-15
9.99201e-16
1.66533e-15
9.99201e-16
1.22125e-15
1.11022e-15
1.33227e-15
1.66533e-15
1.77636e-15
4.44089e-16
1.4988e-15
1.11022e-16
1.38778e-15
-4.44089e-16
8.32667e-16
-4.996e-16
1.22125e-15
-6.10623e-16
8.32667e-16
2.77556e-16
1.55431e-15
-4.44089e-16
7.77156e-16
-1.66533e-16
1.11022e-15
-3.88578e-16
7.21645e-16
0
9.4369e-16
-6.10623e-16
1.05471e-15
-4.996e-16
1.38778e-15
-3.88578e-16
1.66533e-15
-1.11022e-16
1.9984e-15
-5.55112e-17
1.27676e-15
3.88578e-16
1.60982e-15
5.55112e-17
1.72085e-15
-5.55112e-16
1.22125e-15
3.33067e-16
1.66533e-15
-1.66533e-16
1.44329e-15
2.77556e-16
1.72085e-15
1.11022e-16
1.88738e-15
-5.55112e-17
1.72085e-15
8.32667e-16
1.55431e-15
9.4369e-16
1.94289e-15
7.21645e-16
1.38778e-15
-1.66533e-16
1.27676e-15
-8.88178e-16
9.4369e-16
-3.88578e-16
1.11022e-15
-3.88578e-16
1.22125e-15
1.11022e-16
1.22125e-15
-9.99201e-16
7.77156e-16
-8.88178e-16
7.77156e-16
-9.99201e-16
7.21645e-16
-3.88578e-16
1.44329e-15
-7.77156e-16
1.55431e-15
-2.22045e-16
1.94289e-15
5.55112e-17
1.94289e-15
0
1.66533e-15
0
2.05391e-15
1.11022e-16
1.9984e-15
2.77556e-16
2.05391e-15
2.77556e-16
1.88738e-15
7.21645e-16
1.77636e-15
7.77156e-16
1.83187e-15
1.27676e-15
1.9984e-15
3.88578e-16
1.77636e-15
3.33067e-16
1.4988e-15
8.88178e-16
2.16493e-15
2.22045e-15
0.823561
3.10345e-06
0.821432
-4.90623e-05
0.819326
-5.86264e-05
0.81725
-5.10301e-05
0.815207
-3.32269e-05
0.813206
-1.89354e-05
0.811255
-1.01356e-05
0.809365
-5.85686e-06
0.807545
-4.60244e-06
0.805803
-4.78e-06
0.804138
-5.17722e-06
0.802534
-5.67188e-06
0.800957
-5.99247e-06
0.799362
-6.08139e-06
0.797715
-6.06536e-06
0.796012
-5.95573e-06
0.794277
-5.85105e-06
0.792544
-5.77358e-06
0.790838
-5.71222e-06
0.789177
-5.66539e-06
0.787573
-5.63394e-06
0.786032
-5.61504e-06
0.784555
-5.60992e-06
0.783156
-5.63701e-06
0.781811
-5.70734e-06
0.780276
-5.78385e-06
0.777651
-5.82269e-06
0.770649
-5.79739e-06
0.74671
-5.64109e-06
0.662285
-5.20359e-06
0.426128
-3.74611e-06
0.110546
-1.59771e-06
0.00545176
-2.35337e-07
3.24229e-05
-7.47843e-09
1.71039e-08
-3.2865e-11
1.06909e-12
-1.13798e-14
-1.05471e-15
1.4988e-15
-1.16573e-15
7.21645e-16
-3.33067e-16
7.21645e-16
-4.44089e-16
8.88178e-16
3.33067e-16
9.4369e-16
8.32667e-16
1.38778e-15
-3.33067e-16
1.38778e-15
-4.44089e-16
1.77636e-15
-4.44089e-16
1.83187e-15
-1.66533e-16
1.83187e-15
1.11022e-16
1.4988e-15
2.77556e-16
1.38778e-15
3.88578e-16
1.38778e-15
5.55112e-16
2.10942e-15
-7.21645e-16
1.72085e-15
-2.22045e-16
2.22045e-15
-5.55112e-16
1.66533e-15
-6.10623e-16
1.38778e-15
-1.11022e-16
1.88738e-15
3.33067e-16
1.83187e-15
6.10623e-16
1.60982e-15
8.88178e-16
1.33227e-15
9.99201e-16
8.88178e-16
-4.996e-16
1.27676e-15
-3.88578e-16
1.33227e-15
-1.11022e-15
1.11022e-15
-1.66533e-15
8.32667e-16
-8.88178e-16
1.83187e-15
-2.22045e-16
2.33147e-15
-4.44089e-16
2.22045e-15
-5.55112e-16
2.44249e-15
-8.88178e-16
2.33147e-15
-9.4369e-16
2.27596e-15
-1.16573e-15
1.66533e-15
-1.16573e-15
1.60982e-15
-6.66134e-16
1.55431e-15
-1.11022e-15
1.83187e-15
-2.77556e-16
1.83187e-15
4.996e-16
2.10942e-15
-7.77156e-16
1.83187e-15
-1.16573e-15
2.498e-15
-1.22125e-15
2.66454e-15
-9.99201e-16
2.498e-15
-7.77156e-16
2.498e-15
-6.66134e-16
2.498e-15
-1.66533e-16
2.498e-15
0
2.83107e-15
-5.55112e-17
2.88658e-15
-5.55112e-17
3.33067e-15
3.88578e-16
3.21965e-15
3.88578e-16
2.66454e-15
-1.11022e-16
1.66533e-15
1.11022e-16
1.66533e-15
1.11022e-16
1.88738e-15
0
1.77636e-15
1.11022e-16
2.44249e-15
-1.66533e-16
2.66454e-15
-6.10623e-16
2.66454e-15
-7.21645e-16
2.38698e-15
-8.32667e-16
2.33147e-15
-1.16573e-15
1.66533e-15
-4.44089e-16
2.05391e-15
-4.996e-16
2.05391e-15
1.66533e-16
2.27596e-15
7.21645e-16
2.55351e-15
1.38778e-15
2.60902e-15
6.10623e-16
2.60902e-15
-1.11022e-16
2.77556e-15
-4.996e-16
2.66454e-15
5.55112e-16
1.9984e-15
1.11022e-16
1.72085e-15
7.77156e-16
1.88738e-15
6.10623e-16
2.10942e-15
3.33067e-16
2.38698e-15
4.44089e-16
2.77556e-15
4.996e-16
2.38698e-15
4.996e-16
2.22045e-15
6.10623e-16
1.94289e-15
1.44329e-15
1.94289e-15
1.4988e-15
1.66533e-15
1.33227e-15
1.77636e-15
5.55112e-17
1.38778e-15
-1.66533e-16
1.60982e-15
-1.11022e-16
1.27676e-15
-7.77156e-16
4.44089e-16
1.11022e-16
8.88178e-16
-6.66134e-16
4.44089e-16
1.11022e-16
1.44329e-15
-5.55112e-16
1.22125e-15
-1.11022e-16
1.60982e-15
1.66533e-16
1.83187e-15
-3.88578e-16
1.55431e-15
-2.77556e-16
1.72085e-15
2.22045e-16
1.72085e-15
-6.10623e-16
1.77636e-15
4.44089e-16
2.16493e-15
1.66533e-16
1.22125e-15
-3.33067e-16
1.66533e-15
-1.66533e-16
1.66533e-15
0
1.77636e-15
-1.11022e-16
1.9984e-15
4.44089e-16
2.44249e-15
1.66533e-16
2.60902e-15
1.66533e-16
2.33147e-15
1.16573e-15
2.38698e-15
6.10623e-16
2.38698e-15
4.996e-16
1.9984e-15
-3.88578e-16
1.72085e-15
-1.11022e-16
1.27676e-15
-8.32667e-16
2.22045e-16
-1.66533e-16
1.33227e-15
-4.996e-16
4.996e-16
-9.4369e-16
9.4369e-16
-1.16573e-15
1.05471e-15
-4.44089e-16
1.83187e-15
0
2.05391e-15
-2.22045e-16
2.05391e-15
-3.88578e-16
2.22045e-15
-1.66533e-16
2.27596e-15
4.996e-16
2.33147e-15
1.66533e-16
2.44249e-15
5.55112e-17
1.77636e-15
3.33067e-16
2.498e-15
3.88578e-16
2.16493e-15
8.88178e-16
2.33147e-15
8.88178e-16
2.498e-15
6.66134e-16
2.27596e-15
4.44089e-16
2.60902e-15
1.05471e-15
2.27596e-15
9.4369e-16
2.10942e-15
2.55351e-15
0.823479
0.000120771
0.821436
-8.01198e-06
0.819351
-5.25983e-05
0.817276
-5.71405e-05
0.815229
-4.9024e-05
0.813219
-3.17213e-05
0.811261
-1.78524e-05
0.809367
-9.59002e-06
0.807545
-5.70515e-06
0.805802
-4.55082e-06
0.804137
-4.61981e-06
0.802534
-5.01833e-06
0.800956
-5.40261e-06
0.799361
-5.67181e-06
0.797715
-5.78689e-06
0.796012
-5.7826e-06
0.794276
-5.71145e-06
0.792543
-5.64086e-06
0.790838
-5.58023e-06
0.789177
-5.53336e-06
0.787573
-5.50161e-06
0.786032
-5.48655e-06
0.784555
-5.49282e-06
0.783155
-5.5179e-06
0.78181
-5.55973e-06
0.780275
-5.59141e-06
0.77765
-5.59127e-06
0.770649
-5.54619e-06
0.74671
-5.43638e-06
0.662286
-5.02856e-06
0.42613
-3.75884e-06
0.110548
-1.62028e-06
0.00545191
-2.40213e-07
3.24244e-05
-7.66405e-09
1.7105e-08
-3.3572e-11
1.06903e-12
-1.21014e-14
-1.27676e-15
1.77636e-15
-1.16573e-15
1.60982e-15
-4.996e-16
1.38778e-15
1.11022e-16
1.38778e-15
6.10623e-16
1.44329e-15
7.21645e-16
1.66533e-15
3.88578e-16
1.72085e-15
-3.88578e-16
1.77636e-15
-4.996e-16
2.22045e-15
-4.44089e-16
1.72085e-15
-5.55112e-17
1.60982e-15
8.32667e-16
1.83187e-15
9.4369e-16
1.33227e-15
3.33067e-16
1.4988e-15
-3.33067e-16
1.60982e-15
-8.32667e-16
1.83187e-15
-9.99201e-16
2.10942e-15
-3.88578e-16
1.94289e-15
-1.66533e-16
2.05391e-15
5.55112e-17
2.55351e-15
2.77556e-16
2.05391e-15
8.88178e-16
2.05391e-15
1.27676e-15
1.33227e-15
-3.88578e-16
1.16573e-15
-9.99201e-16
1.27676e-15
-1.27676e-15
1.94289e-15
-7.77156e-16
1.88738e-15
-3.33067e-16
1.83187e-15
-3.88578e-16
1.44329e-15
-4.996e-16
1.72085e-15
-4.996e-16
2.05391e-15
-9.4369e-16
2.33147e-15
-1.55431e-15
2.16493e-15
-1.44329e-15
2.33147e-15
-7.77156e-16
1.77636e-15
-5.55112e-16
1.33227e-15
-1.44329e-15
9.99201e-16
-1.11022e-16
1.94289e-15
1.66533e-16
2.33147e-15
5.55112e-17
2.44249e-15
-8.88178e-16
2.60902e-15
-1.16573e-15
2.66454e-15
-1.27676e-15
1.88738e-15
-1.16573e-15
2.16493e-15
-5.55112e-17
2.498e-15
-5.55112e-17
2.22045e-15
1.11022e-16
2.498e-15
-5.55112e-17
2.77556e-15
-4.44089e-16
3.33067e-15
-1.11022e-16
3.21965e-15
-5.55112e-17
3.44169e-15
3.88578e-16
2.77556e-15
3.88578e-16
2.27596e-15
0
2.05391e-15
1.11022e-16
2.33147e-15
2.77556e-16
2.66454e-15
5.55112e-17
2.72005e-15
-7.21645e-16
2.44249e-15
-1.05471e-15
2.66454e-15
-1.33227e-15
2.44249e-15
-8.88178e-16
2.88658e-15
-1.66533e-16
2.55351e-15
-2.77556e-16
2.38698e-15
8.32667e-16
2.72005e-15
8.88178e-16
2.88658e-15
1.27676e-15
2.38698e-15
2.77556e-16
1.66533e-15
-3.33067e-16
1.94289e-15
-1.27676e-15
1.9984e-15
2.22045e-16
2.38698e-15
2.77556e-16
2.16493e-15
1.27676e-15
1.88738e-15
7.77156e-16
1.66533e-15
3.33067e-16
1.60982e-15
4.996e-16
1.77636e-15
5.55112e-17
2.10942e-15
1.66533e-16
2.33147e-15
1.05471e-15
2.83107e-15
1.27676e-15
1.72085e-15
1.27676e-15
1.16573e-15
9.99201e-16
4.996e-16
3.88578e-16
8.32667e-16
-2.22045e-16
1.16573e-15
-9.4369e-16
1.55431e-15
-6.10623e-16
1.11022e-15
0
1.44329e-15
2.77556e-16
1.16573e-15
-1.66533e-16
1.38778e-15
-5.55112e-17
1.33227e-15
0
1.94289e-15
-1.11022e-16
1.60982e-15
-3.88578e-16
1.4988e-15
-3.33067e-16
2.16493e-15
2.77556e-16
2.77556e-15
-2.22045e-16
1.94289e-15
-3.88578e-16
2.498e-15
1.66533e-16
2.16493e-15
-4.996e-16
2.38698e-15
-5.55112e-17
2.88658e-15
1.66533e-16
2.33147e-15
3.88578e-16
2.77556e-15
1.27676e-15
3.05311e-15
1.11022e-16
2.38698e-15
1.66533e-16
1.44329e-15
9.4369e-16
1.55431e-15
2.22045e-16
1.11022e-15
1.66533e-16
1.77636e-15
-8.88178e-16
7.21645e-16
-7.77156e-16
1.44329e-15
-1.11022e-16
1.05471e-15
-3.88578e-16
1.27676e-15
-2.77556e-16
1.4988e-15
-7.77156e-16
1.55431e-15
-2.77556e-16
1.38778e-15
-1.66533e-16
1.83187e-15
-1.66533e-16
1.38778e-15
-3.33067e-16
1.83187e-15
-3.88578e-16
2.72005e-15
1.11022e-16
3.33067e-15
4.44089e-16
2.66454e-15
0
3.05311e-15
3.33067e-16
2.77556e-15
-2.22045e-16
2.88658e-15
4.996e-16
3.44169e-15
9.99201e-16
2.77556e-15
9.4369e-16
2.55351e-15
1.16573e-15
2.22045e-15
3.88578e-16
2.05391e-15
2.77556e-16
8.32667e-16
1.11022e-15
1.16573e-15
1.55431e-15
0.82326
0.000352609
0.821372
0.000108783
0.819362
-1.21271e-05
0.817305
-5.23159e-05
0.815259
-5.73381e-05
0.813244
-4.91867e-05
0.811277
-3.20272e-05
0.809373
-1.8011e-05
0.807546
-9.45473e-06
0.805801
-5.61175e-06
0.804136
-4.55679e-06
0.802533
-4.54358e-06
0.800955
-4.79927e-06
0.799361
-5.22349e-06
0.797715
-5.50274e-06
0.796011
-5.62202e-06
0.794276
-5.64049e-06
0.792543
-5.5941e-06
0.790837
-5.52869e-06
0.789176
-5.47822e-06
0.787573
-5.44444e-06
0.786031
-5.42855e-06
0.784554
-5.43017e-06
0.783155
-5.43845e-06
0.78181
-5.45296e-06
0.780275
-5.46196e-06
0.77765
-5.46371e-06
0.770648
-5.45968e-06
0.74671
-5.37494e-06
0.662287
-4.973e-06
0.426133
-3.75924e-06
0.110549
-1.62426e-06
0.00545207
-2.40618e-07
3.24258e-05
-7.67793e-09
1.71061e-08
-3.37202e-11
1.06881e-12
-1.16018e-14
-1.60982e-15
1.27676e-15
-1.55431e-15
2.77556e-15
-7.21645e-16
1.9984e-15
2.77556e-16
2.27596e-15
1.11022e-15
1.83187e-15
1.05471e-15
1.83187e-15
1.11022e-16
1.16573e-15
-1.11022e-16
1.66533e-15
-8.88178e-16
9.4369e-16
-7.77156e-16
2.05391e-15
-5.55112e-17
2.498e-15
2.77556e-16
3.10862e-15
9.99201e-16
1.83187e-15
4.996e-16
1.33227e-15
1.11022e-16
6.66134e-16
-4.996e-16
9.4369e-16
-1.05471e-15
7.77156e-16
-4.44089e-16
1.83187e-15
0
2.77556e-15
-1.66533e-16
3.16414e-15
3.88578e-16
2.88658e-15
3.33067e-16
2.77556e-15
8.88178e-16
1.77636e-15
-5.55112e-17
8.32667e-16
-1.66533e-16
1.38778e-15
-1.27676e-15
1.16573e-15
-1.05471e-15
2.44249e-15
-3.88578e-16
2.66454e-15
-3.88578e-16
1.88738e-15
-1.66533e-16
2.22045e-15
-2.22045e-16
2.27596e-15
-1.11022e-15
1.44329e-15
-1.33227e-15
1.83187e-15
-2.27596e-15
1.44329e-15
-1.44329e-15
2.498e-15
-7.77156e-16
2.22045e-15
-5.55112e-16
1.77636e-15
3.88578e-16
2.16493e-15
6.66134e-16
2.60902e-15
-3.88578e-16
1.88738e-15
-1.05471e-15
2.498e-15
-1.94289e-15
2.27596e-15
-1.22125e-15
2.44249e-15
-1.05471e-15
3.44169e-15
-3.33067e-16
3.4972e-15
0
3.38618e-15
7.21645e-16
3.21965e-15
1.16573e-15
3.66374e-15
-4.44089e-16
3.05311e-15
5.55112e-17
3.66374e-15
-1.05471e-15
2.72005e-15
-4.996e-16
2.77556e-15
2.77556e-16
3.05311e-15
2.77556e-16
3.38618e-15
8.88178e-16
3.21965e-15
2.77556e-16
2.72005e-15
-4.44089e-16
1.77636e-15
-3.33067e-16
2.16493e-15
-9.99201e-16
1.66533e-15
-9.99201e-16
2.16493e-15
-1.38778e-15
2.55351e-15
-2.77556e-16
3.21965e-15
3.33067e-16
3.10862e-15
9.4369e-16
2.60902e-15
-1.66533e-16
2.27596e-15
7.21645e-16
3.10862e-15
3.88578e-16
1.9984e-15
3.88578e-16
2.44249e-15
-6.66134e-16
1.33227e-15
2.22045e-16
1.60982e-15
-4.996e-16
1.33227e-15
8.32667e-16
2.27596e-15
6.66134e-16
1.27676e-15
3.33067e-16
1.27676e-15
1.05471e-15
2.60902e-15
3.88578e-16
1.9984e-15
7.77156e-16
2.38698e-15
-5.55112e-17
1.77636e-15
7.21645e-16
1.27676e-15
1.05471e-15
1.4988e-15
1.4988e-15
1.11022e-15
4.44089e-16
4.44089e-16
1.11022e-16
1.27676e-15
-1.33227e-15
9.4369e-16
-5.55112e-16
1.83187e-15
-1.66533e-16
1.77636e-15
6.10623e-16
1.4988e-15
-4.996e-16
1.27676e-15
6.66134e-16
1.60982e-15
-3.33067e-16
1.27676e-15
-1.11022e-16
1.77636e-15
4.996e-16
2.10942e-15
-5.55112e-17
1.83187e-15
-7.77156e-16
1.88738e-15
2.22045e-16
2.22045e-15
-5.55112e-16
2.10942e-15
6.66134e-16
2.66454e-15
-5.55112e-17
1.44329e-15
-2.22045e-16
1.22125e-15
5.55112e-16
1.77636e-15
3.88578e-16
1.11022e-15
2.22045e-16
1.60982e-15
-9.4369e-16
1.38778e-15
1.11022e-16
1.88738e-15
7.77156e-16
2.22045e-15
5.55112e-16
1.88738e-15
-4.44089e-16
9.99201e-16
-2.77556e-16
8.88178e-16
-1.16573e-15
9.4369e-16
-3.88578e-16
1.38778e-15
0
1.11022e-15
-3.88578e-16
1.05471e-15
-1.05471e-15
1.16573e-15
0
1.44329e-15
-5.55112e-16
1.16573e-15
5.55112e-17
2.38698e-15
6.10623e-16
2.27596e-15
0
2.22045e-15
-4.996e-16
1.88738e-15
7.77156e-16
2.498e-15
-2.77556e-16
2.33147e-15
6.10623e-16
2.9976e-15
3.33067e-16
2.05391e-15
2.22045e-16
1.83187e-15
6.10623e-16
2.05391e-15
7.77156e-16
9.4369e-16
4.996e-16
8.32667e-16
-2.22045e-16
7.77156e-16
4.996e-16
1.38778e-15
1.44329e-15
1.72085e-15
1.44329e-15
0.822841
0.000721675
0.82117
0.000335719
0.819305
0.000100781
0.817319
-1.55948e-05
0.815287
-5.33961e-05
0.813274
-5.84274e-05
0.811302
-4.97306e-05
0.809389
-3.2419e-05
0.807552
-1.82733e-05
0.805802
-9.47592e-06
0.804135
-5.53873e-06
0.802531
-4.58183e-06
0.800954
-4.33301e-06
0.79936
-4.69298e-06
0.797714
-5.15548e-06
0.796011
-5.42108e-06
0.794276
-5.54418e-06
0.792543
-5.5483e-06
0.790837
-5.50944e-06
0.789176
-5.46185e-06
0.787573
-5.41873e-06
0.786031
-5.39226e-06
0.784554
-5.381e-06
0.783155
-5.37891e-06
0.78181
-5.38634e-06
0.780275
-5.39662e-06
0.77765
-5.40718e-06
0.770648
-5.40588e-06
0.74671
-5.31649e-06
0.662288
-4.92409e-06
0.426135
-3.71412e-06
0.110551
-1.60234e-06
0.00545223
-2.37224e-07
3.24273e-05
-7.57034e-09
1.71072e-08
-3.32647e-11
1.06892e-12
-1.17129e-14
-1.72085e-15
1.77636e-15
-2.05391e-15
1.9984e-15
-2.77556e-16
2.27596e-15
-1.66533e-16
1.66533e-15
1.05471e-15
1.60982e-15
2.22045e-16
1.05471e-15
6.66134e-16
1.22125e-15
-4.996e-16
1.27676e-15
1.11022e-16
1.11022e-15
-4.996e-16
1.11022e-15
2.22045e-16
1.94289e-15
-5.55112e-16
2.44249e-15
3.88578e-16
1.9984e-15
-3.88578e-16
1.72085e-15
3.88578e-16
1.27676e-15
-3.88578e-16
1.27676e-15
-1.66533e-16
1.27676e-15
4.996e-16
1.72085e-15
1.11022e-16
1.55431e-15
-2.77556e-16
1.77636e-15
1.11022e-16
1.88738e-15
-5.55112e-16
1.55431e-15
0
1.22125e-15
2.77556e-16
9.99201e-16
-4.996e-16
7.21645e-16
-5.55112e-17
1.27676e-15
-7.77156e-16
1.27676e-15
-1.16573e-15
1.38778e-15
-2.77556e-16
2.27596e-15
-5.55112e-17
1.66533e-15
-8.88178e-16
1.16573e-15
-6.10623e-16
1.38778e-15
-1.9984e-15
1.44329e-15
-1.22125e-15
1.55431e-15
-1.60982e-15
1.33227e-15
-1.05471e-15
2.16493e-15
-2.77556e-16
2.83107e-15
9.4369e-16
2.38698e-15
-1.66533e-16
1.9984e-15
4.44089e-16
2.16493e-15
-1.11022e-15
2.10942e-15
-1.55431e-15
2.27596e-15
-2.77556e-16
3.21965e-15
-1.33227e-15
3.33067e-15
-4.44089e-16
4.16334e-15
1.11022e-16
4.16334e-15
1.22125e-15
3.9968e-15
2.22045e-16
3.05311e-15
1.66533e-16
2.83107e-15
-6.66134e-16
2.38698e-15
-1.33227e-15
1.94289e-15
0
2.55351e-15
4.996e-16
2.60902e-15
-5.55112e-17
2.10942e-15
4.44089e-16
2.22045e-15
-6.10623e-16
1.66533e-15
-1.11022e-16
1.77636e-15
-9.4369e-16
1.4988e-15
-2.22045e-16
1.72085e-15
-1.11022e-15
9.99201e-16
-6.10623e-16
1.83187e-15
-2.22045e-16
1.9984e-15
-2.22045e-16
2.22045e-15
6.66134e-16
2.05391e-15
4.996e-16
1.94289e-15
0
2.16493e-15
4.996e-16
1.9984e-15
-4.44089e-16
1.55431e-15
-1.11022e-15
1.16573e-15
5.55112e-17
2.27596e-15
4.44089e-16
2.44249e-15
2.22045e-16
1.88738e-15
6.66134e-16
2.44249e-15
1.60982e-15
2.10942e-15
7.77156e-16
1.88738e-15
5.55112e-16
1.9984e-15
1.11022e-16
1.72085e-15
-6.10623e-16
1.9984e-15
5.55112e-16
1.83187e-15
8.32667e-16
1.77636e-15
9.4369e-16
1.38778e-15
1.16573e-15
1.60982e-15
-1.66533e-16
1.27676e-15
-1.11022e-16
1.05471e-15
-5.55112e-16
6.10623e-16
-3.88578e-16
7.21645e-16
1.66533e-16
8.32667e-16
-1.66533e-16
9.99201e-16
2.22045e-16
7.77156e-16
3.33067e-16
1.22125e-15
-5.55112e-17
3.88578e-16
-5.55112e-17
1.4988e-15
5.55112e-17
1.60982e-15
-1.11022e-16
1.88738e-15
3.88578e-16
1.94289e-15
-1.66533e-16
1.60982e-15
-6.10623e-16
1.88738e-15
-5.55112e-17
2.05391e-15
2.77556e-16
1.88738e-15
-2.22045e-16
1.66533e-15
7.21645e-16
1.66533e-15
-5.55112e-17
1.60982e-15
-1.11022e-16
1.72085e-15
6.10623e-16
2.27596e-15
4.44089e-16
1.16573e-15
-5.55112e-16
1.05471e-15
-4.44089e-16
8.88178e-16
-1.66533e-16
1.60982e-15
-6.66134e-16
1.22125e-15
-7.77156e-16
1.44329e-15
1.66533e-16
1.83187e-15
-2.77556e-16
8.88178e-16
-6.10623e-16
1.05471e-15
0
1.44329e-15
3.88578e-16
1.05471e-15
5.55112e-17
1.16573e-15
4.44089e-16
1.38778e-15
-2.22045e-16
1.83187e-15
5.55112e-17
1.9984e-15
6.66134e-16
1.94289e-15
-1.11022e-16
1.55431e-15
-1.11022e-16
1.55431e-15
1.11022e-16
1.60982e-15
3.88578e-16
1.55431e-15
-2.77556e-16
1.60982e-15
4.44089e-16
1.38778e-15
4.44089e-16
1.9984e-15
2.77556e-16
1.16573e-15
8.32667e-16
1.55431e-15
1.22125e-15
1.22125e-15
1.05471e-15
0.822169
0.00123918
0.820767
0.000695346
0.819111
0.000320728
0.817264
9.27668e-05
0.815302
-1.93367e-05
0.813303
-5.49395e-05
0.811332
-5.96606e-05
0.809414
-5.01632e-05
0.807569
-3.26528e-05
0.805809
-1.84035e-05
0.804137
-9.5285e-06
0.802531
-5.50424e-06
0.800953
-4.42152e-06
0.799359
-4.20534e-06
0.797713
-4.57179e-06
0.796011
-5.06818e-06
0.794276
-5.37211e-06
0.792543
-5.48273e-06
0.790837
-5.47471e-06
0.789176
-5.45132e-06
0.787573
-5.40535e-06
0.786031
-5.37129e-06
0.784554
-5.3517e-06
0.783155
-5.34153e-06
0.78181
-5.34063e-06
0.780275
-5.34754e-06
0.77765
-5.35548e-06
0.770649
-5.34576e-06
0.74671
-5.24418e-06
0.662289
-4.84799e-06
0.426137
-3.65172e-06
0.110553
-1.57419e-06
0.00545238
-2.32858e-07
3.24287e-05
-7.42366e-09
1.71082e-08
-3.25884e-11
1.0702e-12
-1.19349e-14
-1.44329e-15
2.27596e-15
-1.72085e-15
2.27596e-15
-9.4369e-16
2.55351e-15
-1.66533e-16
2.60902e-15
4.996e-16
2.22045e-15
5.55112e-16
1.88738e-15
6.66134e-16
1.88738e-15
-4.996e-16
1.4988e-15
-1.11022e-16
1.83187e-15
2.22045e-16
2.38698e-15
6.66134e-16
2.33147e-15
-8.32667e-16
1.94289e-15
3.33067e-16
2.66454e-15
-7.21645e-16
1.33227e-15
5.55112e-17
1.88738e-15
-1.66533e-16
1.88738e-15
1.11022e-16
2.22045e-15
2.22045e-16
2.94209e-15
3.88578e-16
2.9976e-15
5.55112e-17
2.72005e-15
-5.55112e-16
1.83187e-15
-9.99201e-16
1.72085e-15
-1.66533e-16
2.16493e-15
-5.55112e-17
1.9984e-15
-1.11022e-16
1.9984e-15
0
1.94289e-15
-4.996e-16
1.72085e-15
-3.33067e-16
1.77636e-15
-8.32667e-16
2.22045e-15
-5.55112e-16
2.10942e-15
-6.10623e-16
2.38698e-15
-6.66134e-16
2.498e-15
-1.4988e-15
2.33147e-15
-1.44329e-15
2.498e-15
-8.32667e-16
2.60902e-15
-5.55112e-16
2.44249e-15
-5.55112e-16
2.60902e-15
1.66533e-16
2.77556e-15
1.11022e-16
2.60902e-15
2.77556e-16
2.72005e-15
-7.21645e-16
2.72005e-15
-6.10623e-16
3.05311e-15
5.55112e-17
3.71925e-15
-4.44089e-16
2.88658e-15
-1.11022e-16
3.55271e-15
-2.22045e-16
3.38618e-15
5.55112e-17
3.55271e-15
-1.11022e-16
3.16414e-15
-1.11022e-16
3.10862e-15
-7.77156e-16
2.83107e-15
-6.10623e-16
2.83107e-15
5.55112e-17
3.10862e-15
-2.22045e-16
2.44249e-15
5.55112e-17
2.498e-15
-1.11022e-16
2.10942e-15
-3.33067e-16
1.9984e-15
-4.44089e-16
2.05391e-15
-1.11022e-15
1.9984e-15
-7.77156e-16
2.498e-15
-4.44089e-16
2.44249e-15
-3.88578e-16
2.33147e-15
-2.22045e-16
2.05391e-15
-3.33067e-16
2.38698e-15
4.996e-16
2.33147e-15
4.996e-16
2.16493e-15
-3.33067e-16
1.60982e-15
-1.66533e-16
2.498e-15
-6.10623e-16
1.66533e-15
2.77556e-16
1.94289e-15
4.996e-16
2.38698e-15
-3.33067e-16
1.72085e-15
6.10623e-16
2.44249e-15
4.44089e-16
2.77556e-15
1.22125e-15
2.498e-15
8.88178e-16
1.88738e-15
1.11022e-16
1.88738e-15
2.77556e-16
1.9984e-15
-5.55112e-16
1.60982e-15
5.55112e-17
1.77636e-15
2.77556e-16
1.60982e-15
7.77156e-16
1.38778e-15
6.10623e-16
1.22125e-15
-6.66134e-16
8.32667e-16
-6.66134e-16
1.05471e-15
-4.996e-16
8.88178e-16
-7.21645e-16
8.88178e-16
4.996e-16
1.22125e-15
-1.11022e-16
8.88178e-16
6.66134e-16
1.60982e-15
0
9.99201e-16
9.4369e-16
1.33227e-15
3.33067e-16
1.44329e-15
3.33067e-16
1.66533e-15
-4.996e-16
2.22045e-15
-1.11022e-16
2.88658e-15
0
2.27596e-15
-1.11022e-16
2.66454e-15
-5.55112e-17
2.77556e-15
-5.55112e-17
2.44249e-15
-3.33067e-16
2.77556e-15
3.33067e-16
2.77556e-15
1.66533e-16
3.16414e-15
1.11022e-16
2.38698e-15
-6.10623e-16
1.83187e-15
2.22045e-16
1.72085e-15
-5.55112e-16
1.16573e-15
5.55112e-17
1.83187e-15
-3.88578e-16
1.77636e-15
-5.55112e-16
2.10942e-15
-3.33067e-16
1.88738e-15
-9.4369e-16
1.4988e-15
-1.66533e-16
1.66533e-15
-2.22045e-16
9.4369e-16
-4.996e-16
6.10623e-16
5.55112e-16
1.27676e-15
3.88578e-16
1.27676e-15
8.32667e-16
1.66533e-15
3.33067e-16
1.83187e-15
-3.33067e-16
2.16493e-15
2.22045e-16
2.60902e-15
-5.55112e-17
1.9984e-15
-5.55112e-17
1.4988e-15
-1.11022e-16
1.9984e-15
3.88578e-16
2.10942e-15
0
1.88738e-15
8.32667e-16
2.44249e-15
-4.44089e-16
1.55431e-15
2.22045e-16
2.27596e-15
6.10623e-16
2.72005e-15
1.05471e-15
2.05391e-15
1.33227e-15
0.8212
0.00189507
0.820116
0.00119946
0.81872
0.000670093
0.817077
0.000305597
0.815251
8.45805e-05
0.813318
-2.30764e-05
0.811361
-5.65214e-05
0.809445
-6.07614e-05
0.807594
-5.04739e-05
0.805826
-3.2758e-05
0.804144
-1.84286e-05
0.802532
-9.50318e-06
0.800952
-5.42642e-06
0.799358
-4.29322e-06
0.797713
-4.0577e-06
0.79601
-4.4534e-06
0.794276
-4.97158e-06
0.792543
-5.29758e-06
0.790837
-5.43294e-06
0.789176
-5.41566e-06
0.787573
-5.40494e-06
0.786031
-5.3647e-06
0.784554
-5.33259e-06
0.783155
-5.30999e-06
0.78181
-5.29866e-06
0.780275
-5.29719e-06
0.77765
-5.29407e-06
0.770649
-5.27e-06
0.746711
-5.16191e-06
0.66229
-4.76631e-06
0.42614
-3.58835e-06
0.110554
-1.54633e-06
0.00545253
-2.28634e-07
3.24301e-05
-7.28453e-09
1.71093e-08
-3.19553e-11
1.07025e-12
-1.14353e-14
-1.16573e-15
2.38698e-15
-1.16573e-15
2.33147e-15
-7.77156e-16
2.498e-15
-6.10623e-16
1.77636e-15
3.88578e-16
2.22045e-15
2.77556e-16
1.33227e-15
2.22045e-16
1.72085e-15
1.11022e-16
1.44329e-15
6.66134e-16
2.10942e-15
1.11022e-16
1.4988e-15
5.55112e-17
1.27676e-15
-2.22045e-16
9.4369e-16
-7.21645e-16
1.38778e-15
-3.33067e-16
1.72085e-15
1.11022e-16
2.27596e-15
3.88578e-16
2.60902e-15
1.05471e-15
2.55351e-15
3.88578e-16
1.9984e-15
-1.11022e-16
1.83187e-15
-4.996e-16
1.60982e-15
-4.44089e-16
1.94289e-15
-4.44089e-16
1.38778e-15
-1.11022e-16
1.9984e-15
-1.11022e-16
2.498e-15
-2.77556e-16
2.38698e-15
-3.33067e-16
2.498e-15
-4.996e-16
2.05391e-15
-5.55112e-17
2.16493e-15
-7.77156e-16
1.44329e-15
-2.77556e-16
2.22045e-15
-7.21645e-16
1.88738e-15
-8.32667e-16
2.60902e-15
-1.38778e-15
2.66454e-15
-1.44329e-15
2.94209e-15
-9.4369e-16
2.60902e-15
-2.22045e-16
2.55351e-15
-4.996e-16
1.94289e-15
2.22045e-16
2.88658e-15
0
1.9984e-15
-2.22045e-16
2.60902e-15
-3.33067e-16
3.05311e-15
-3.33067e-16
3.05311e-15
-7.21645e-16
2.77556e-15
5.55112e-17
3.05311e-15
-3.33067e-16
2.38698e-15
0
3.21965e-15
-1.66533e-16
2.94209e-15
-1.66533e-16
3.27516e-15
-2.22045e-16
3.27516e-15