/*--------------------------------*- C++ -*----------------------------------*\
  =========                 |
  \\      /  F ield         | OpenFOAM: The Open Source CFD Toolbox
   \\    /   O peration     | Website:  https://openfoam.org
    \\  /    A nd           | Version:  13
     \\/     M anipulation  |
\*---------------------------------------------------------------------------*/
FoamFile
{
    format      ascii;
    class       volVectorField;
    location    "0.0008";
    object      U;
}
// * * * * * * * * * * * * * * * * * * * * * * * * * * * * * * * * * * * * * //

dimensions      [0 1 -1 0 0 0 0];

internalField   nonuniform List<vector> 
33333
(
(-7.8855e-14 -1.05368e-13 0)
(-1.49259e-13 -1.86482e-13 0)
(-9.75143e-14 -1.35897e-14 0)
(-1.53444e-13 6.31949e-14 0)
(-2.17864e-13 1.48201e-13 0)
(-1.0118e-13 1.34981e-13 0)
(-8.19566e-14 2.20249e-13 0)
(-8.45131e-15 9.30311e-14 0)
(1.7845e-13 2.59846e-14 0)
(2.74725e-13 -1.8568e-13 0)
(2.79496e-13 -1.77979e-13 0)
(6.63464e-14 -2.38743e-13 0)
(7.4524e-15 -1.69208e-13 0)
(6.42687e-15 -2.70733e-13 0)
(-9.66495e-14 -1.68972e-13 0)
(-2.67217e-14 -1.65151e-13 0)
(4.04099e-14 -1.68766e-13 0)
(-6.77885e-14 -6.64788e-14 0)
(-3.45578e-14 -1.42511e-13 0)
(9.13295e-15 -5.7022e-14 0)
(1.01615e-13 -1.17708e-13 0)
(8.86597e-14 -1.49782e-13 0)
(4.4975e-14 -1.87012e-13 0)
(3.57136e-14 -1.37033e-13 0)
(-1.2263e-15 -2.01923e-13 0)
(-3.02661e-14 -1.64929e-13 0)
(7.83959e-14 -1.05535e-13 0)
(6.87016e-14 -7.32755e-14 0)
(-9.42124e-14 -1.17657e-13 0)
(-2.03419e-13 -1.1202e-13 0)
(-1.54733e-13 -2.27718e-13 0)
(-2.29886e-13 -1.2871e-13 0)
(-1.94789e-13 -3.71253e-14 0)
(4.85157e-14 1.65765e-15 0)
(1.04578e-13 -1.57561e-13 0)
(7.6219e-14 -1.47138e-13 0)
(1.30605e-13 -1.14272e-13 0)
(2.30483e-13 -8.50135e-15 0)
(2.06408e-13 -1.07371e-13 0)
(9.83319e-14 -1.39327e-13 0)
(1.22407e-14 -1.43972e-13 0)
(-9.3016e-15 -3.67023e-14 0)
(-3.34242e-14 -9.85115e-14 0)
(-1.27811e-14 -2.3356e-13 0)
(4.85766e-14 -1.87837e-13 0)
(3.96792e-14 -1.54382e-13 0)
(6.0693e-14 -8.36456e-14 0)
(8.90029e-14 -1.54106e-13 0)
(6.55459e-14 -6.21875e-14 0)
(4.07893e-14 -1.69718e-13 0)
(2.11425e-15 -8.71031e-14 0)
(2.24569e-13 -1.67062e-13 0)
(2.07556e-13 -1.38223e-13 0)
(1.10908e-13 -1.4677e-13 0)
(4.03757e-14 -8.24806e-14 0)
(-3.86974e-14 -6.48174e-15 0)
(-1.61039e-15 3.511e-14 0)
(2.3952e-14 -3.06881e-14 0)
(1.53927e-14 3.38387e-14 0)
(4.95368e-14 -9.69622e-14 0)
(-2.55106e-15 -7.03697e-14 0)
(-4.11635e-14 -1.71652e-13 0)
(-3.34219e-14 -1.41362e-14 0)
(3.72002e-15 -9.20668e-14 0)
(-5.34057e-14 -1.11138e-13 0)
(-8.77826e-14 -2.22852e-13 0)
(-1.63255e-13 -1.10093e-13 0)
(-1.70144e-13 1.50029e-14 0)
(-5.3857e-14 4.16111e-14 0)
(-8.17522e-15 -6.92689e-14 0)
(-6.82668e-14 -2.66355e-14 0)
(-3.84213e-14 6.03892e-14 0)
(8.18787e-14 5.5976e-14 0)
(1.82689e-13 -1.93764e-14 0)
(-1.25311e-14 -6.18699e-14 0)
(-6.95777e-14 6.85608e-14 0)
(1.66318e-13 8.46534e-14 0)
(1.05548e-13 -3.46334e-14 0)
(-1.09281e-13 -2.89601e-14 0)
(-2.15957e-13 -4.9349e-15 0)
(-1.52634e-13 -5.64395e-14 0)
(-1.01947e-13 -7.61094e-14 0)
(-2.52595e-13 -1.54253e-13 0)
(-3.13878e-13 -1.40722e-13 0)
(-1.84586e-13 -2.10554e-16 0)
(-9.5402e-14 3.3728e-15 0)
(-1.45024e-13 9.73822e-14 0)
(-7.58114e-14 1.74142e-13 0)
(-5.83859e-15 1.90235e-13 0)
(-2.48045e-14 2.04016e-13 0)
(4.1039e-15 1.73993e-13 0)
(5.18519e-14 2.10152e-13 0)
(3.74152e-14 2.01133e-13 0)
(7.6776e-14 1.89806e-13 0)
(1.60836e-13 1.67992e-13 0)
(2.49448e-13 9.40342e-14 0)
(2.23188e-13 2.91427e-14 0)
(2.33234e-13 -5.56889e-14 0)
(1.40847e-13 -1.57086e-14 0)
(-1.11121e-13 -6.91644e-14 0)
(-1.61778e-13 1.18097e-14 0)
(1.94522e-14 3.66987e-14 0)
(1.35247e-13 -9.42821e-14 0)
(5.36336e-15 -1.17864e-13 0)
(-1.78791e-13 -1.41523e-13 0)
(-9.52811e-14 -1.68796e-13 0)
(-1.22959e-14 -1.09152e-13 0)
(-1.20512e-13 -5.04558e-14 0)
(-1.97416e-13 1.17901e-13 0)
(-1.23031e-13 1.87114e-13 0)
(-9.93781e-14 1.81819e-13 0)
(-7.26769e-14 1.77845e-13 0)
(-1.29334e-13 1.6648e-13 0)
(-8.83069e-14 1.75191e-13 0)
(-1.06134e-13 9.39615e-14 0)
(-7.90574e-14 2.30879e-14 0)
(6.98068e-14 3.80736e-14 0)
(1.37977e-13 2.60599e-14 0)
(1.52889e-13 1.28096e-13 0)
(2.30754e-13 1.87498e-13 0)
(1.55809e-13 1.69225e-13 0)
(7.01785e-14 1.67355e-13 0)
(1.03028e-13 1.57616e-13 0)
(1.73542e-13 1.44058e-13 0)
(8.89524e-14 -6.11532e-15 0)
(-1.4793e-13 -2.07106e-14 0)
(6.02902e-15 -5.942e-14 0)
(1.72393e-13 -4.96667e-14 0)
(-7.2773e-14 -4.03083e-14 0)
(-2.11809e-13 1.3299e-13 0)
(-1.06792e-13 2.52393e-13 0)
(-8.09412e-14 3.15494e-13 0)
(-1.09752e-13 2.78326e-13 0)
(-1.24772e-13 2.392e-13 0)
(2.16813e-14 1.56164e-13 0)
(3.18492e-15 -1.12425e-15 0)
(-5.55514e-14 3.45984e-14 0)
(2.18437e-15 1.76866e-13 0)
(5.6411e-14 2.95265e-13 0)
(1.29041e-13 3.69998e-13 0)
(7.01893e-14 2.46904e-13 0)
(-6.33701e-14 1.95656e-13 0)
(-4.30557e-14 1.66348e-13 0)
(-1.90513e-14 1.29293e-13 0)
(5.72891e-14 1.87437e-13 0)
(1.00173e-13 1.40694e-13 0)
(1.22953e-13 1.34047e-13 0)
(1.04653e-13 7.34534e-14 0)
(1.70114e-13 1.0617e-13 0)
(1.20868e-13 3.61629e-14 0)
(-4.36684e-14 6.36091e-14 0)
(-1.00781e-14 1.08136e-13 0)
(-9.97008e-14 6.76746e-14 0)
(-1.77961e-13 9.70415e-14 0)
(-1.57316e-13 1.18681e-13 0)
(-1.9566e-13 8.64795e-14 0)
(-2.48142e-13 8.57262e-14 0)
(-1.22397e-13 1.312e-13 0)
(-2.2049e-14 1.04215e-13 0)
(-1.29675e-13 9.14169e-14 0)
(-5.19106e-14 9.86346e-14 0)
(2.40816e-14 1.53749e-13 0)
(7.6427e-15 2.08253e-13 0)
(6.50482e-14 2.01996e-13 0)
(5.89425e-14 2.14164e-13 0)
(3.89378e-14 1.67297e-13 0)
(3.35574e-14 1.87203e-13 0)
(-1.41127e-13 3.59277e-14 0)
(-1.17115e-13 -3.53743e-15 0)
(-7.41673e-14 -3.16642e-14 0)
(-1.4011e-13 -2.01992e-14 0)
(-1.86503e-13 1.015e-13 0)
(-5.26884e-14 8.28893e-14 0)
(-8.76975e-14 1.5738e-13 0)
(-7.26492e-15 7.00684e-14 0)
(1.47194e-13 2.79352e-14 0)
(2.46897e-13 -7.19263e-14 0)
(2.73008e-13 -1.57035e-13 0)
(7.33436e-14 -1.88873e-13 0)
(-6.67426e-14 -1.80004e-13 0)
(-4.46108e-14 -2.19135e-13 0)
(-4.79764e-14 -2.48334e-13 0)
(-7.18941e-14 -2.38737e-14 0)
(4.2753e-14 -9.02234e-14 0)
(-2.11354e-14 -2.70097e-14 0)
(-1.96884e-14 -2.67276e-14 0)
(8.31924e-14 7.62726e-15 0)
(7.84226e-14 -2.89661e-14 0)
(1.95137e-14 -7.61757e-14 0)
(5.42817e-14 -1.04756e-13 0)
(-2.64975e-14 -1.26846e-13 0)
(-8.07783e-14 -2.4137e-13 0)
(7.52194e-14 -1.27694e-13 0)
(1.34465e-13 -8.49647e-14 0)
(2.64412e-14 -1.78188e-13 0)
(-1.48846e-13 -1.50184e-13 0)
(-2.61216e-13 -2.06011e-13 0)
(-1.68912e-13 -1.34217e-13 0)
(-1.85442e-13 -1.83727e-13 0)
(-1.25665e-13 -9.82893e-15 0)
(-7.35975e-16 7.09263e-14 0)
(7.00087e-14 -1.91966e-14 0)
(1.56104e-13 -8.66027e-15 0)
(2.30145e-13 3.7938e-14 0)
(2.13673e-13 3.55042e-14 0)
(1.25735e-13 1.61736e-15 0)
(5.70284e-14 -4.71344e-14 0)
(7.31424e-14 -5.896e-14 0)
(2.00356e-14 1.63908e-14 0)
(-1.04016e-13 -6.89803e-15 0)
(-4.10142e-14 -1.19016e-13 0)
(1.27684e-13 -1.49656e-13 0)
(1.38847e-13 -1.83087e-13 0)
(2.4583e-14 -5.10441e-14 0)
(7.43917e-14 -7.73719e-14 0)
(3.12814e-14 -2.88521e-14 0)
(4.45438e-14 -9.22543e-14 0)
(6.86779e-14 -1.24926e-14 0)
(1.40654e-13 -5.19367e-14 0)
(1.8994e-13 -2.30199e-13 0)
(1.33078e-13 -1.67521e-13 0)
(1.68549e-13 -2.46756e-13 0)
(5.68046e-14 -7.81483e-14 0)
(-8.49657e-14 -2.21799e-14 0)
(4.25716e-14 1.34783e-14 0)
(5.69348e-14 7.71722e-14 0)
(1.17608e-14 5.99639e-16 0)
(-9.82709e-15 -2.66849e-14 0)
(5.05116e-15 -6.80939e-14 0)
(3.29996e-14 7.32133e-15 0)
(-4.6413e-14 -5.75832e-14 0)
(-1.94631e-13 -6.25374e-14 0)
(-1.08398e-13 -9.27689e-14 0)
(-9.74228e-14 -1.03758e-13 0)
(-1.58137e-13 -7.64331e-14 0)
(-1.26286e-13 -1.08088e-13 0)
(-6.84264e-14 -2.06531e-13 0)
(4.23338e-14 -9.38373e-14 0)
(1.70716e-14 -2.89542e-14 0)
(-1.44199e-15 -1.59582e-14 0)
(5.40507e-14 -1.23466e-13 0)
(3.14812e-14 -2.12827e-13 0)
(3.53606e-14 -5.61591e-14 0)
(9.87367e-14 -2.60769e-14 0)
(1.06418e-14 -1.22167e-13 0)
(-1.06208e-13 -1.99975e-13 0)
(-2.34855e-13 -1.06649e-13 0)
(-2.77559e-13 -9.09829e-16 0)
(-2.15875e-13 -7.00946e-14 0)
(-2.59049e-13 -1.15207e-13 0)
(-2.33329e-13 9.11851e-15 0)
(-1.44746e-13 1.09594e-13 0)
(-3.38697e-14 7.31682e-14 0)
(-6.57946e-14 8.41865e-14 0)
(-8.48819e-14 7.82234e-14 0)
(-7.26551e-14 9.43264e-14 0)
(-4.86052e-14 1.69908e-14 0)
(6.35607e-14 7.72072e-14 0)
(1.17221e-13 9.40696e-14 0)
(5.80183e-14 1.01159e-13 0)
(4.58037e-14 6.4164e-14 0)
(1.14528e-13 1.57245e-14 0)
(1.74587e-13 -2.71904e-14 0)
(1.00823e-13 -3.27258e-14 0)
(1.19266e-13 -8.7407e-14 0)
(1.53167e-13 -2.03024e-13 0)
(8.55873e-15 -2.11474e-13 0)
(-4.1457e-14 -6.59379e-14 0)
(-3.15337e-14 -9.60452e-14 0)
(1.11334e-14 -1.34354e-13 0)
(-4.94594e-14 -2.25327e-13 0)
(-1.98307e-13 -1.48523e-13 0)
(-1.41443e-13 -1.14565e-13 0)
(1.01455e-14 -5.09683e-14 0)
(3.49043e-14 -6.66599e-14 0)
(-9.43511e-14 4.68789e-14 0)
(-1.59014e-13 1.06796e-13 0)
(-1.21252e-13 5.63384e-14 0)
(-9.38351e-14 3.46656e-14 0)
(-1.53218e-13 4.74959e-14 0)
(-1.99401e-13 4.9337e-14 0)
(-2.08526e-13 3.74762e-14 0)
(-1.15768e-16 1.03845e-13 0)
(1.39663e-13 1.07037e-13 0)
(1.98677e-13 1.1584e-13 0)
(2.70019e-13 1.24292e-13 0)
(2.39803e-13 1.34522e-13 0)
(1.61816e-13 3.88281e-14 0)
(5.11064e-14 6.21703e-14 0)
(3.12219e-14 2.2033e-14 0)
(9.3697e-14 -6.43713e-14 0)
(9.35649e-14 -1.50359e-13 0)
(-8.06297e-14 -1.00013e-13 0)
(-2.22296e-14 -3.1194e-14 0)
(9.23158e-14 -1.37411e-13 0)
(-5.59167e-15 -1.76928e-13 0)
(-7.64421e-14 3.28592e-15 0)
(-1.29305e-13 1.0441e-13 0)
(-8.29198e-14 1.0488e-13 0)
(-8.21356e-14 1.11597e-13 0)
(-1.27664e-13 1.27644e-13 0)
(-9.91212e-14 1.07344e-13 0)
(-5.40709e-14 -4.65355e-14 0)
(-3.12226e-15 2.35213e-14 0)
(6.58685e-14 1.03955e-13 0)
(3.34806e-14 1.53159e-13 0)
(7.56846e-14 1.46076e-13 0)
(9.19376e-14 8.69725e-14 0)
(2.53845e-14 6.19321e-14 0)
(-4.9359e-14 7.75361e-14 0)
(-1.25469e-14 3.88995e-14 0)
(8.64843e-14 4.99958e-14 0)
(1.2836e-13 5.24445e-14 0)
(4.67881e-14 4.28058e-14 0)
(6.14041e-15 -1.11368e-14 0)
(1.4703e-13 -1.02291e-13 0)
(1.59079e-13 -1.41809e-13 0)
(6.12473e-14 -6.44902e-14 0)
(-4.77846e-14 -4.0679e-15 0)
(-1.1165e-13 -1.0155e-13 0)
(-1.28899e-13 -1.01573e-13 0)
(-1.93826e-13 -3.28153e-14 0)
(-2.76996e-13 -7.15492e-14 0)
(-1.92092e-13 -1.88195e-14 0)
(-3.44481e-14 5.94302e-14 0)
(-5.15216e-14 5.10224e-14 0)
(-8.38751e-14 3.57439e-14 0)
(-4.1718e-14 1.26219e-13 0)
(2.50802e-14 9.80169e-14 0)
(-9.01904e-15 9.96855e-14 0)
(2.04208e-15 8.18251e-14 0)
(2.20216e-14 5.98604e-14 0)
(6.87483e-14 1.04585e-13 0)
(2.80751e-14 6.68884e-14 0)
(-1.40802e-13 2.9036e-14 0)
(-2.05236e-13 -7.24719e-14 0)
(-1.55323e-13 -5.85365e-14 0)
(-1.02616e-13 -2.65911e-14 0)
(-1.00801e-13 6.18421e-14 0)
(-5.03961e-14 3.82596e-14 0)
(-7.34518e-14 5.54232e-14 0)
(1.87443e-14 1.88945e-15 0)
(1.15575e-13 -2.13881e-13 0)
(1.73077e-13 -2.56352e-13 0)
(1.98947e-13 -3.48352e-13 0)
(1.00291e-13 -4.25583e-13 0)
(-3.03192e-14 -4.3693e-13 0)
(-9.24924e-14 -2.57082e-13 0)
(4.96001e-14 -2.12282e-13 0)
(6.23392e-14 -5.35181e-14 0)
(7.18128e-14 -1.12831e-14 0)
(-3.18532e-16 -9.07744e-14 0)
(-2.13065e-14 -1.71247e-13 0)
(5.2313e-14 -1.745e-13 0)
(-1.99509e-15 -2.16986e-13 0)
(-4.15036e-15 -2.80635e-13 0)
(-1.07162e-14 -2.64999e-13 0)
(-1.19166e-13 -3.37105e-13 0)
(-9.78484e-15 -2.84663e-13 0)
(1.39033e-13 -2.39958e-13 0)
(3.92556e-14 -3.23564e-13 0)
(4.52703e-14 -2.93753e-13 0)
(-5.40601e-14 -2.18953e-13 0)
(-1.7638e-13 -1.65593e-13 0)
(-2.12024e-13 -9.90067e-14 0)
(-1.91719e-13 -1.80531e-13 0)
(1.82981e-14 -7.07106e-14 0)
(4.21858e-14 -3.20872e-14 0)
(1.20826e-13 5.15921e-14 0)
(1.89683e-13 1.10538e-14 0)
(1.24875e-13 -5.77996e-14 0)
(1.63825e-13 -1.95551e-13 0)
(1.2564e-13 -2.062e-13 0)
(6.96066e-14 -1.78013e-13 0)
(5.49421e-14 -1.29898e-13 0)
(-2.56783e-14 -1.82212e-13 0)
(-1.539e-13 -1.76387e-13 0)
(-5.24566e-14 -2.05012e-13 0)
(7.23162e-14 -3.09082e-13 0)
(1.49354e-13 -3.67664e-13 0)
(1.38136e-13 -2.56133e-13 0)
(5.55573e-14 -1.89182e-13 0)
(2.39575e-14 -1.55596e-13 0)
(5.4784e-14 -1.11634e-13 0)
(1.02729e-13 -1.58071e-13 0)
(5.47359e-14 -2.51792e-13 0)
(1.49752e-13 -2.61653e-13 0)
(8.99238e-14 -2.85302e-13 0)
(1.2436e-13 -3.33871e-13 0)
(1.1294e-13 -2.5999e-13 0)
(5.33091e-14 -1.53348e-13 0)
(1.54291e-13 -7.996e-14 0)
(5.92753e-14 -1.32699e-13 0)
(-2.31453e-14 -1.02012e-13 0)
(-5.5777e-14 -1.68859e-13 0)
(-1.91438e-14 -1.04824e-13 0)
(-2.27173e-14 -1.84737e-13 0)
(-9.16451e-14 -3.33682e-13 0)
(-1.3489e-13 -2.902e-13 0)
(-1.01668e-13 -2.19973e-13 0)
(-1.6688e-13 -2.59318e-13 0)
(-2.47587e-13 -3.14139e-13 0)
(-1.97219e-13 -3.55632e-13 0)
(-5.62509e-14 -3.47872e-13 0)
(1.30642e-13 -3.0797e-13 0)
(4.74142e-14 -2.87354e-13 0)
(-1.38698e-14 -2.38136e-13 0)
(-1.28381e-14 -2.87804e-13 0)
(8.44151e-14 -2.84719e-13 0)
(1.40586e-13 -2.49386e-13 0)
(4.74076e-14 -2.4726e-13 0)
(-9.22115e-14 -2.93872e-13 0)
(-4.30706e-14 -2.71089e-13 0)
(-1.01652e-13 -2.26453e-13 0)
(-1.91596e-13 -1.55315e-13 0)
(-2.06138e-13 -2.32776e-13 0)
(-1.53447e-13 -1.32911e-13 0)
(-1.69119e-13 -5.29108e-14 0)
(-1.80177e-13 -2.96911e-14 0)
(-1.29122e-13 -1.17867e-13 0)
(-1.14059e-13 -1.82893e-13 0)
(-9.59743e-14 -1.82971e-13 0)
(-1.29795e-13 -1.74982e-13 0)
(-4.73482e-14 -2.2405e-13 0)
(1.11871e-13 -2.00642e-13 0)
(8.49693e-14 -2.41507e-13 0)
(2.88827e-14 -2.0347e-13 0)
(1.34355e-14 -2.65087e-13 0)
(9.54224e-14 -3.40377e-13 0)
(1.7461e-13 -3.39672e-13 0)
(1.54953e-13 -2.96589e-13 0)
(7.00071e-14 -3.17939e-13 0)
(2.06335e-14 -3.80352e-13 0)
(5.75593e-14 -3.08747e-13 0)
(2.91459e-14 -2.68375e-13 0)
(-1.12584e-14 -2.94048e-13 0)
(4.83663e-15 -3.01368e-13 0)
(-7.86345e-15 -2.95198e-13 0)
(-8.82715e-14 -2.37418e-13 0)
(-1.02011e-13 -1.60344e-13 0)
(-3.83336e-14 -2.14901e-13 0)
(-3.27034e-14 -2.85131e-13 0)
(-7.12147e-14 -2.49093e-13 0)
(-1.80483e-13 -2.70918e-13 0)
(-1.72096e-13 -3.03631e-13 0)
(-1.09514e-13 -2.71504e-13 0)
(-1.16993e-13 -2.72565e-13 0)
(-9.98087e-14 -2.42447e-13 0)
(-1.59297e-14 -1.36372e-13 0)
(8.1659e-14 -2.69485e-14 0)
(1.22643e-13 -2.9107e-14 0)
(1.50042e-13 -2.88208e-15 0)
(1.30615e-13 -5.11155e-14 0)
(1.47233e-13 -1.64669e-13 0)
(1.28961e-13 -1.75521e-13 0)
(4.04979e-14 -1.66788e-13 0)
(-3.93591e-14 -2.19253e-13 0)
(1.23191e-14 -2.81542e-13 0)
(1.33756e-13 -2.41802e-13 0)
(2.15519e-14 -2.47827e-13 0)
(-4.36517e-14 -1.57355e-13 0)
(-2.87661e-14 -2.22776e-13 0)
(1.41105e-14 -2.55057e-13 0)
(-1.77371e-14 -2.77702e-13 0)
(-6.22348e-14 -2.74979e-13 0)
(-6.83843e-14 -2.38513e-13 0)
(-8.72332e-14 -1.93707e-13 0)
(-8.37186e-14 -1.52121e-13 0)
(-1.81059e-13 -1.49278e-13 0)
(-8.97918e-14 -2.20939e-13 0)
(6.61116e-14 -2.04616e-13 0)
(3.87351e-14 -1.92932e-13 0)
(1.35199e-14 -1.66399e-13 0)
(3.50092e-14 -1.68082e-13 0)
(5.57028e-14 -2.03377e-13 0)
(7.04551e-14 -2.17787e-13 0)
(8.98576e-15 -2.37531e-13 0)
(-4.91949e-14 -1.76612e-13 0)
(2.62757e-14 -3.20379e-13 0)
(1.39744e-13 -2.52658e-13 0)
(5.84069e-14 -2.52715e-13 0)
(-2.9693e-14 -1.99712e-13 0)
(3.38473e-14 -1.89869e-13 0)
(1.18e-13 -2.48224e-13 0)
(1.42646e-13 -2.05866e-13 0)
(-5.90083e-14 -2.02371e-13 0)
(-2.00563e-13 -2.42446e-13 0)
(-1.48957e-13 -2.799e-13 0)
(-1.42222e-13 -2.84692e-13 0)
(-1.97921e-13 -2.98943e-13 0)
(-1.20253e-13 -3.05597e-13 0)
(-4.41608e-14 -2.02233e-13 0)
(-3.43772e-15 -1.63077e-13 0)
(-2.67788e-14 -2.30459e-13 0)
(-5.61539e-14 -2.50783e-13 0)
(-5.01105e-16 -2.6465e-13 0)
(-3.14582e-14 -2.32978e-13 0)
(-2.91891e-14 -2.41517e-13 0)
(8.92525e-14 -2.71588e-13 0)
(9.5918e-14 -1.51068e-13 0)
(5.31012e-14 -1.38936e-13 0)
(-1.88631e-13 -1.89558e-13 0)
(-1.78142e-13 -2.46226e-13 0)
(-5.40824e-14 -2.19765e-13 0)
(-7.24575e-14 -1.59231e-13 0)
(-1.01988e-13 -1.06883e-13 0)
(-6.7638e-14 -3.17499e-14 0)
(-1.33926e-13 -6.67317e-14 0)
(-2.00541e-13 -5.23942e-14 0)
(-9.16524e-14 -3.20777e-13 0)
(1.44838e-13 -3.84242e-13 0)
(1.04176e-13 -4.44059e-13 0)
(2.14139e-14 -4.52619e-13 0)
(8.92653e-14 -4.43608e-13 0)
(7.14009e-14 -2.81764e-13 0)
(1.14696e-13 -1.86249e-13 0)
(1.01686e-13 -2.24257e-13 0)
(7.52327e-14 -2.19765e-13 0)
(-5.38137e-14 -3.0419e-13 0)
(-7.44561e-14 -2.52757e-13 0)
(1.4905e-14 -3.05697e-13 0)
(-4.87867e-14 -2.76426e-13 0)
(-6.82826e-14 -3.61659e-13 0)
(-5.67112e-15 -3.66816e-13 0)
(-8.541e-14 -3.6639e-13 0)
(2.30802e-14 -2.92077e-13 0)
(3.73519e-14 -3.97447e-13 0)
(9.85068e-14 -4.62559e-13 0)
(1.60807e-13 -3.49822e-13 0)
(1.37182e-14 -3.7533e-13 0)
(-1.42041e-13 -3.42523e-13 0)
(-2.37256e-13 -2.64117e-13 0)
(-1.74352e-13 -1.60232e-13 0)
(1.44823e-14 -2.12556e-13 0)
(1.02879e-13 -2.03082e-13 0)
(1.43869e-13 -1.21524e-13 0)
(1.07313e-13 -2.00945e-13 0)
(4.72906e-14 -2.2379e-13 0)
(7.70352e-14 -2.49583e-13 0)
(1.13086e-13 -3.24132e-13 0)
(1.26345e-13 -3.78012e-13 0)
(9.81906e-14 -3.64191e-13 0)
(2.27163e-15 -4.10544e-13 0)
(-1.02999e-13 -3.56256e-13 0)
(-9.67835e-14 -3.10988e-13 0)
(-1.49414e-14 -3.75414e-13 0)
(1.74112e-13 -3.32726e-13 0)
(1.68373e-13 -3.43087e-13 0)
(1.1848e-13 -2.47033e-13 0)
(9.10591e-14 -2.27116e-13 0)
(5.25139e-14 -1.77124e-13 0)
(-5.89781e-15 -2.66502e-13 0)
(7.823e-14 -2.88729e-13 0)
(1.59459e-13 -2.432e-13 0)
(5.92446e-14 -2.89642e-13 0)
(1.42611e-13 -2.43171e-13 0)
(2.13253e-13 -2.51323e-13 0)
(1.36799e-13 -1.48785e-13 0)
(7.00059e-14 -1.86211e-13 0)
(5.72684e-15 -3.46204e-13 0)
(-6.73868e-14 -3.36451e-13 0)
(-5.79783e-15 -2.85976e-13 0)
(-9.57889e-15 -2.49766e-13 0)
(-1.86786e-13 -3.35189e-13 0)
(-1.10481e-13 -4.55117e-13 0)
(-2.26162e-14 -4.6906e-13 0)
(-1.09799e-13 -4.67962e-13 0)
(-1.73175e-13 -4.49805e-13 0)
(-2.02651e-13 -4.08668e-13 0)
(-1.93326e-13 -3.32193e-13 0)
(-7.92566e-14 -3.47888e-13 0)
(5.63341e-14 -3.72786e-13 0)
(6.86483e-14 -4.10541e-13 0)
(-2.41369e-14 -4.29703e-13 0)
(2.94512e-14 -3.96059e-13 0)
(1.06306e-13 -3.37865e-13 0)
(1.06295e-13 -3.98085e-13 0)
(3.64559e-14 -4.17515e-13 0)
(-9.0464e-15 -4.56718e-13 0)
(-5.69889e-14 -3.52188e-13 0)
(-1.7357e-13 -4.1622e-13 0)
(-2.75618e-13 -4.59954e-13 0)
(-1.94741e-13 -5.03423e-13 0)
(-5.39803e-14 -4.35674e-13 0)
(-1.27552e-13 -3.64469e-13 0)
(-2.1174e-13 -3.22504e-13 0)
(-1.59829e-13 -3.23687e-13 0)
(-4.32783e-14 -3.50321e-13 0)
(-7.09188e-14 -3.29546e-13 0)
(-1.0415e-13 -3.69254e-13 0)
(-2.88259e-14 -3.64414e-13 0)
(4.06776e-14 -3.23466e-13 0)
(3.402e-14 -3.87527e-13 0)
(3.03988e-14 -4.36651e-13 0)
(-8.3435e-14 -4.4646e-13 0)
(8.71766e-15 -5.32541e-13 0)
(2.19666e-13 -4.99603e-13 0)
(8.55194e-14 -4.6351e-13 0)
(9.07198e-15 -4.31937e-13 0)
(8.6721e-14 -4.10404e-13 0)
(1.20245e-13 -3.38601e-13 0)
(7.36891e-16 -3.66778e-13 0)
(-2.25133e-14 -3.29503e-13 0)
(2.33643e-14 -3.14685e-13 0)
(1.95252e-14 -2.70021e-13 0)
(-1.08224e-13 -3.5577e-13 0)
(-1.25132e-13 -3.68602e-13 0)
(-6.58393e-14 -4.50972e-13 0)
(-2.56875e-14 -4.22174e-13 0)
(-8.43639e-14 -4.59299e-13 0)
(-2.37279e-13 -4.61638e-13 0)
(-1.50321e-13 -4.65491e-13 0)
(-7.10063e-14 -4.36931e-13 0)
(-1.23018e-13 -4.44046e-13 0)
(-6.5146e-14 -4.30007e-13 0)
(4.11855e-14 -4.37988e-13 0)
(1.23386e-13 -3.92543e-13 0)
(1.22077e-13 -3.5427e-13 0)
(1.31098e-13 -3.62474e-13 0)
(9.25958e-14 -3.87315e-13 0)
(1.32752e-13 -4.32207e-13 0)
(1.65265e-13 -3.89987e-13 0)
(7.2041e-14 -3.58833e-13 0)
(-8.65767e-14 -3.12946e-13 0)
(4.53385e-14 -2.73865e-13 0)
(1.314e-13 -2.78826e-13 0)
(2.27382e-14 -3.00225e-13 0)
(-2.46092e-15 -2.91429e-13 0)
(1.2843e-14 -3.05231e-13 0)
(-7.82729e-14 -2.54761e-13 0)
(-1.2667e-13 -3.48131e-13 0)
(-6.32152e-14 -4.16545e-13 0)
(3.78671e-14 -3.59909e-13 0)
(-5.85548e-15 -3.65815e-13 0)
(-9.18599e-14 -3.53921e-13 0)
(-1.95465e-13 -4.05812e-13 0)
(-1.05167e-13 -3.74711e-13 0)
(9.50912e-15 -4.0677e-13 0)
(6.96229e-14 -4.87554e-13 0)
(7.39801e-14 -4.68165e-13 0)
(3.14086e-14 -4.91608e-13 0)
(7.01681e-15 -4.03016e-13 0)
(-2.49769e-14 -3.79387e-13 0)
(-4.4432e-14 -4.0388e-13 0)
(-3.96406e-14 -4.30429e-13 0)
(4.64494e-14 -4.17403e-13 0)
(1.22683e-13 -4.52602e-13 0)
(4.69342e-14 -4.24157e-13 0)
(2.84723e-14 -3.92763e-13 0)
(9.16873e-14 -3.68663e-13 0)
(1.40834e-13 -3.05899e-13 0)
(6.42477e-14 -3.50761e-13 0)
(-6.69233e-14 -3.83277e-13 0)
(-1.28968e-13 -4.15395e-13 0)
(-1.62102e-13 -3.82905e-13 0)
(-1.95849e-13 -4.40314e-13 0)
(-2.67473e-13 -4.58016e-13 0)
(-9.39441e-14 -4.33206e-13 0)
(4.0031e-14 -3.84244e-13 0)
(-3.03986e-14 -3.62426e-13 0)
(-1.29676e-13 -3.69228e-13 0)
(-7.22637e-14 -4.13464e-13 0)
(2.04586e-14 -3.97682e-13 0)
(-5.17006e-15 -4.03557e-13 0)
(-5.42414e-14 -4.09174e-13 0)
(9.98578e-14 -4.24174e-13 0)
(2.17997e-13 -3.91035e-13 0)
(1.34043e-13 -3.36396e-13 0)
(-1.84761e-13 -2.68981e-13 0)
(-2.00201e-13 -2.01954e-13 0)
(-1.86937e-14 -2.54337e-13 0)
(-1.94442e-14 -3.61695e-13 0)
(-6.65686e-15 -4.02656e-13 0)
(-2.85774e-14 -3.35937e-13 0)
(-1.0835e-13 -3.31101e-13 0)
(-2.52337e-13 -2.19099e-13 0)
(-1.78858e-13 -1.52293e-13 0)
(5.44489e-14 -2.57604e-13 0)
(1.21215e-13 -3.8167e-13 0)
(6.36949e-14 -4.19434e-13 0)
(8.78616e-14 -3.45405e-13 0)
(1.45062e-13 -3.6155e-13 0)
(1.20193e-13 -2.94899e-13 0)
(9.42753e-14 -4.45972e-13 0)
(3.85501e-14 -4.39478e-13 0)
(2.05701e-14 -3.17249e-13 0)
(-5.20826e-14 -2.17414e-13 0)
(-4.15879e-16 -2.46991e-13 0)
(-6.68927e-14 -3.38592e-13 0)
(-7.52318e-14 -2.80637e-13 0)
(-5.77219e-14 -3.33307e-13 0)
(-1.02328e-13 -3.51352e-13 0)
(-8.22149e-15 -3.22337e-13 0)
(2.69583e-14 -3.65215e-13 0)
(1.10284e-13 -3.38527e-13 0)
(8.53841e-14 -3.93708e-13 0)
(-2.31703e-14 -4.51028e-13 0)
(-7.18207e-14 -4.34725e-13 0)
(-3.5857e-14 -3.2969e-13 0)
(-6.24809e-14 -1.44494e-13 0)
(-3.61454e-15 -1.80576e-13 0)
(1.04442e-13 -1.62465e-13 0)
(1.12812e-13 -2.51135e-13 0)
(6.23892e-14 -2.72623e-13 0)
(8.27077e-14 -1.81643e-13 0)
(4.99401e-14 -1.8722e-13 0)
(-6.10788e-14 -3.17149e-13 0)
(-2.49872e-14 -4.51971e-13 0)
(3.17935e-14 -5.06471e-13 0)
(-2.8735e-15 -4.94977e-13 0)
(-4.3635e-14 -4.90401e-13 0)
(-1.10265e-14 -3.19503e-13 0)
(4.89056e-14 -3.06971e-13 0)
(1.66688e-13 -3.27084e-13 0)
(2.60627e-13 -3.65463e-13 0)
(2.00592e-13 -2.31284e-13 0)
(4.7301e-14 -2.37213e-13 0)
(9.13423e-15 -2.37052e-13 0)
(-4.89188e-14 -2.57002e-13 0)
(6.34072e-14 -2.19187e-13 0)
(1.18297e-13 -3.39454e-13 0)
(6.85139e-14 -3.49221e-13 0)
(1.49177e-13 -3.08367e-13 0)
(1.97608e-13 -3.05051e-13 0)
(1.32663e-13 -3.60105e-13 0)
(6.04966e-15 -3.26804e-13 0)
(-4.83453e-14 -2.70229e-13 0)
(-3.62212e-14 -2.41197e-13 0)
(1.59522e-14 -2.19856e-13 0)
(-5.46752e-14 -2.97213e-13 0)
(-2.46415e-13 -3.91928e-13 0)
(-2.07639e-13 -4.10707e-13 0)
(-1.07612e-13 -4.92198e-13 0)
(-6.52263e-14 -3.99035e-13 0)
(-1.17163e-13 -3.39297e-13 0)
(-1.21443e-13 -3.80584e-13 0)
(-1.38277e-13 -3.6332e-13 0)
(-1.23299e-13 -3.67772e-13 0)
(-3.07021e-15 -3.21571e-13 0)
(4.72925e-15 -3.49009e-13 0)
(1.44461e-14 -4.12919e-13 0)
(8.26435e-14 -4.04097e-13 0)
(9.59762e-14 -3.88323e-13 0)
(6.18379e-14 -4.08473e-13 0)
(4.39636e-15 -4.6385e-13 0)
(9.05729e-15 -4.72035e-13 0)
(-4.96856e-14 -4.64043e-13 0)
(-2.10878e-13 -5.30957e-13 0)
(-3.11214e-13 -5.74521e-13 0)
(-1.68993e-13 -4.75743e-13 0)
(-1.32123e-14 -4.69074e-13 0)
(-2.97199e-14 -5.3163e-13 0)
(-1.15201e-13 -4.64903e-13 0)
(-1.56509e-13 -3.82909e-13 0)
(-1.19927e-13 -3.4892e-13 0)
(-1.34196e-13 -3.91215e-13 0)
(-1.01116e-13 -4.38354e-13 0)
(-2.03982e-14 -4.0503e-13 0)
(8.45608e-14 -3.99602e-13 0)
(2.87425e-14 -3.99454e-13 0)
(-2.67139e-14 -4.97218e-13 0)
(-6.21346e-14 -5.24723e-13 0)
(1.63296e-14 -4.60043e-13 0)
(1.70662e-13 -4.74716e-13 0)
(1.40264e-13 -4.74383e-13 0)
(9.08579e-14 -3.77631e-13 0)
(1.13818e-13 -4.07013e-13 0)
(1.01394e-13 -4.0017e-13 0)
(4.14986e-14 -3.53774e-13 0)
(3.89615e-14 -2.68119e-13 0)
(4.85466e-14 -2.84266e-13 0)
(-6.68308e-14 -3.16411e-13 0)
(-1.59709e-13 -3.7567e-13 0)
(-1.52983e-13 -3.75985e-13 0)
(-8.1786e-14 -3.45264e-13 0)
(-3.69923e-14 -3.85164e-13 0)
(-1.05679e-13 -4.39286e-13 0)
(-1.95874e-13 -4.61022e-13 0)
(-1.73862e-13 -4.12494e-13 0)
(-9.84944e-14 -3.57502e-13 0)
(-7.74904e-14 -3.82631e-13 0)
(-3.45663e-14 -3.78938e-13 0)
(3.85752e-14 -4.02398e-13 0)
(1.42777e-13 -4.38115e-13 0)
(1.15261e-13 -4.31807e-13 0)
(1.04237e-13 -4.53603e-13 0)
(6.57843e-14 -4.22975e-13 0)
(1.09031e-13 -3.80936e-13 0)
(1.72494e-13 -4.16723e-13 0)
(1.07379e-13 -4.1913e-13 0)
(3.76453e-14 -3.6834e-13 0)
(7.52519e-14 -3.13908e-13 0)
(6.41567e-14 -3.40308e-13 0)
(-1.06063e-14 -3.61265e-13 0)
(-2.95879e-14 -3.43609e-13 0)
(1.91313e-14 -3.7978e-13 0)
(-2.54377e-14 -3.08582e-13 0)
(-1.46041e-13 -2.76836e-13 0)
(-1.52066e-14 -2.62701e-13 0)
(-7.36878e-15 -2.80531e-13 0)
(-9.86322e-14 -3.64335e-13 0)
(-1.45469e-13 -4.50339e-13 0)
(-1.48907e-13 -4.59078e-13 0)
(-9.79535e-14 -3.72283e-13 0)
(-4.45547e-14 -3.07363e-13 0)
(-3.07077e-14 -3.99711e-13 0)
(2.50051e-14 -5.09157e-13 0)
(1.20017e-13 -5.21359e-13 0)
(1.01358e-13 -4.70318e-13 0)
(-6.65935e-15 -4.76674e-13 0)
(-8.32019e-14 -4.90543e-13 0)
(-4.59871e-14 -5.21399e-13 0)
(5.2648e-14 -3.96428e-13 0)
(1.16428e-13 -4.41593e-13 0)
(7.68412e-14 -3.7757e-13 0)
(2.14265e-14 -4.11485e-13 0)
(8.87936e-14 -3.87753e-13 0)
(1.43289e-13 -4.24063e-13 0)
(5.36364e-14 -4.33362e-13 0)
(-9.16689e-14 -4.6507e-13 0)
(-1.27289e-13 -4.87257e-13 0)
(-1.77271e-13 -4.50232e-13 0)
(-2.27032e-13 -4.72475e-13 0)
(-2.01396e-13 -3.883e-13 0)
(-3.51646e-14 -3.22647e-13 0)
(4.3782e-14 -3.3693e-13 0)
(1.82864e-15 -2.91803e-13 0)
(-1.06537e-13 -2.9812e-13 0)
(-8.37357e-14 -3.47035e-13 0)
(-2.84872e-14 -3.15903e-13 0)
(-5.4762e-15 -3.53698e-13 0)
(-1.92315e-14 -3.74856e-13 0)
(8.41272e-14 -3.37882e-13 0)
(1.87169e-13 -4.22765e-13 0)
(2.18103e-13 -4.305e-13 0)
(-1.18958e-13 -3.67793e-13 0)
(-1.03684e-13 -3.55832e-13 0)
(-1.61903e-13 -3.44123e-13 0)
(-1.94524e-13 -4.13402e-13 0)
(-5.00536e-14 -5.01319e-13 0)
(5.37479e-14 -4.22315e-13 0)
(-8.69232e-15 -4.12735e-13 0)
(-1.23607e-13 -3.73701e-13 0)
(-1.24178e-13 -2.69809e-13 0)
(-5.32773e-14 -2.02001e-13 0)
(-4.33489e-14 -3.37188e-13 0)
(6.91906e-14 -4.30432e-13 0)
(1.59798e-13 -4.11436e-13 0)
(1.20301e-13 -4.189e-13 0)
(4.35495e-14 -4.71363e-13 0)
(5.88271e-15 -5.37307e-13 0)
(1.49546e-13 -4.77151e-13 0)
(7.07173e-14 -4.66792e-13 0)
(-2.58416e-14 -4.30505e-13 0)
(-1.14062e-13 -3.89088e-13 0)
(-6.40515e-14 -4.04681e-13 0)
(-4.04597e-14 -3.80229e-13 0)
(-6.01004e-14 -3.64257e-13 0)
(-7.28064e-14 -3.08197e-13 0)
(8.05881e-15 -3.11215e-13 0)
(8.2328e-14 -2.7849e-13 0)
(4.16011e-14 -1.50275e-13 0)
(5.81468e-14 -2.54444e-13 0)
(7.76443e-15 -2.04739e-13 0)
(-2.93073e-14 -2.02179e-13 0)
(3.72001e-14 -1.78141e-13 0)
(-4.54868e-15 -1.32868e-13 0)
(1.63213e-14 -1.39541e-13 0)
(2.45561e-14 -2.41853e-13 0)
(5.37594e-14 -2.45707e-13 0)
(1.49002e-13 -2.9712e-13 0)
(1.16211e-13 -2.78997e-13 0)
(-6.6292e-14 -3.83509e-13 0)
(-1.69393e-13 -4.86466e-13 0)
(-5.88246e-14 -5.25152e-13 0)
(3.84085e-14 -5.76675e-13 0)
(-2.15322e-14 -5.46023e-13 0)
(8.34766e-14 -5.09276e-13 0)
(9.10574e-14 -3.62464e-13 0)
(-1.29437e-14 -4.00092e-13 0)
(1.79588e-13 -3.5401e-13 0)
(2.90636e-13 -2.60395e-13 0)
(2.36349e-13 -3.19718e-13 0)
(7.12602e-14 -3.49775e-13 0)
(4.60912e-14 -4.11779e-13 0)
(-2.71325e-14 -3.53369e-13 0)
(-4.29336e-14 -3.16341e-13 0)
(4.64174e-14 -3.83641e-13 0)
(5.75783e-14 -3.5145e-13 0)
(1.46273e-13 -3.65206e-13 0)
(1.31702e-13 -3.70041e-13 0)
(1.08852e-13 -4.78011e-13 0)
(1.39356e-13 -4.57565e-13 0)
(4.202e-14 -3.28647e-13 0)
(-2.51551e-14 -2.59752e-13 0)
(-8.45044e-14 -2.96927e-13 0)
(-1.65077e-13 -4.1454e-13 0)
(-2.54516e-13 -4.70905e-13 0)
(-2.4541e-13 -4.36132e-13 0)
(-4.87126e-14 -4.19518e-13 0)
(5.26502e-14 -3.1848e-13 0)
(-1.33719e-13 -2.88612e-13 0)
(-2.18758e-13 -3.41097e-13 0)
(-1.52325e-13 -3.80777e-13 0)
(-4.02701e-14 -3.01279e-13 0)
(3.79296e-14 -2.3989e-13 0)
(-3.71228e-14 -2.46338e-13 0)
(-6.84415e-14 -2.8477e-13 0)
(6.31861e-14 -2.30181e-13 0)
(1.02779e-13 -3.0705e-13 0)
(4.86153e-14 -2.79705e-13 0)
(-2.15999e-14 -3.0988e-13 0)
(-3.31695e-14 -3.11909e-13 0)
(-1.08922e-13 -3.792e-13 0)
(-2.19112e-13 -4.2283e-13 0)
(-2.37392e-13 -4.29285e-13 0)
(-1.18831e-13 -3.76168e-13 0)
(-5.43462e-14 -4.16749e-13 0)
(-9.98592e-14 -4.35054e-13 0)
(-8.02144e-14 -4.69993e-13 0)
(-6.81548e-14 -3.94879e-13 0)
(-1.11739e-13 -3.46462e-13 0)
(-1.75381e-13 -3.83328e-13 0)
(-1.09329e-13 -3.85064e-13 0)
(2.62767e-14 -3.51991e-13 0)
(9.91956e-14 -3.65555e-13 0)
(2.05018e-14 -3.56717e-13 0)
(-2.37348e-14 -3.29287e-13 0)
(-6.35302e-14 -3.75892e-13 0)
(2.58113e-14 -2.9963e-13 0)
(1.52056e-13 -3.65863e-13 0)
(1.96367e-13 -3.71373e-13 0)
(9.28558e-14 -3.84187e-13 0)
(9.22036e-14 -3.57473e-13 0)
(1.54987e-13 -4.23622e-13 0)
(1.26081e-13 -3.06998e-13 0)
(4.2608e-14 -3.4113e-13 0)
(3.00318e-14 -3.91755e-13 0)
(-4.29752e-14 -3.08864e-13 0)
(-1.3199e-13 -2.88446e-13 0)
(-1.1884e-13 -2.39926e-13 0)
(-9.23177e-14 -1.83962e-13 0)
(-9.98229e-14 -2.50004e-13 0)
(-1.62991e-13 -3.18132e-13 0)
(-1.85375e-13 -3.42557e-13 0)
(-7.91612e-14 -3.10451e-13 0)
(-6.52472e-14 -2.65993e-13 0)
(-1.11142e-13 -3.08417e-13 0)
(-8.75572e-14 -2.76058e-13 0)
(-3.10809e-15 -2.65968e-13 0)
(9.54847e-14 -3.52378e-13 0)
(1.24395e-13 -4.01848e-13 0)
(1.40566e-13 -3.94032e-13 0)
(1.11131e-13 -3.68464e-13 0)
(1.45851e-13 -2.99882e-13 0)
(1.53203e-13 -3.46791e-13 0)
(7.41723e-14 -3.69356e-13 0)
(3.00593e-14 -3.62159e-13 0)
(6.3102e-14 -3.18845e-13 0)
(8.69081e-14 -3.92403e-13 0)
(4.59963e-14 -3.31524e-13 0)
(-3.22012e-14 -2.85684e-13 0)
(-6.71063e-15 -2.75308e-13 0)
(4.11274e-14 -3.27461e-13 0)
(-7.49391e-14 -2.13248e-13 0)
(-4.59561e-14 -2.24113e-13 0)
(-1.02241e-13 -2.90922e-13 0)
(-1.52561e-13 -3.30755e-13 0)
(-1.62007e-13 -3.74653e-13 0)
(-1.04277e-13 -3.86676e-13 0)
(-2.09563e-14 -3.10144e-13 0)
(-4.35808e-14 -2.92243e-13 0)
(-8.86417e-14 -2.98994e-13 0)
(-2.23234e-14 -3.13191e-13 0)
(5.90018e-14 -2.97433e-13 0)
(8.27066e-14 -3.93202e-13 0)
(6.50863e-15 -4.44526e-13 0)
(-7.28048e-14 -4.38404e-13 0)
(-6.49523e-15 -4.39898e-13 0)
(1.16715e-13 -4.15443e-13 0)
(1.66288e-13 -3.89763e-13 0)
(7.13196e-14 -3.9348e-13 0)
(6.973e-15 -3.40474e-13 0)
(6.43323e-14 -2.83594e-13 0)
(9.74359e-14 -3.76528e-13 0)
(4.20927e-14 -3.43612e-13 0)
(-8.02034e-14 -3.70334e-13 0)
(-1.57122e-13 -3.53192e-13 0)
(-1.69496e-13 -4.14891e-13 0)
(-1.61598e-13 -3.96693e-13 0)
(-1.15881e-13 -3.21468e-13 0)
(-3.74781e-14 -2.02786e-13 0)
(9.8427e-14 -2.40196e-13 0)
(-6.66915e-15 -2.92398e-13 0)
(-1.56977e-13 -3.54978e-13 0)
(-8.36462e-14 -2.99195e-13 0)
(3.0945e-14 -2.71594e-13 0)
(-2.6786e-14 -3.13541e-13 0)
(-4.01575e-14 -3.70982e-13 0)
(5.34531e-14 -3.49901e-13 0)
(1.48087e-13 -3.59481e-13 0)
(2.14091e-13 -3.03684e-13 0)
(-1.52309e-13 -4.18665e-13 0)
(-1.56398e-13 -4.60312e-13 0)
(-1.16746e-13 -3.91606e-13 0)
(-1.41354e-13 -3.53965e-13 0)