/*--------------------------------*- C++ -*----------------------------------*\
  =========                 |
  \\      /  F ield         | OpenFOAM: The Open Source CFD Toolbox
   \\    /   O peration     | Website:  https://openfoam.org
    \\  /    A nd           | Version:  13
     \\/     M anipulation  |
\*---------------------------------------------------------------------------*/
FoamFile
{
    format      ascii;
    class       volVectorField;
    location    "0.0004";
    object      U;
}
// * * * * * * * * * * * * * * * * * * * * * * * * * * * * * * * * * * * * * //

dimensions      [0 1 -1 0 0 0 0];

internalField   nonuniform List<vector> 
33333
(
(3.88946e-14 1.02109e-13 0)
(5.69067e-14 4.26852e-14 0)
(5.07347e-14 -2.0407e-14 0)
(9.30025e-14 -1.05475e-14 0)
(4.17623e-14 -4.05599e-14 0)
(5.56248e-14 -8.72587e-14 0)
(3.48994e-14 -1.14342e-13 0)
(-1.04697e-13 -9.32992e-14 0)
(-1.69585e-14 -5.22112e-14 0)
(6.37041e-15 -7.89933e-14 0)
(-4.14591e-14 -4.37389e-14 0)
(-9.63661e-14 -2.03137e-14 0)
(-9.53547e-14 9.07447e-14 0)
(1.02611e-13 8.81137e-14 0)
(2.64282e-14 -8.35527e-15 0)
(-6.67207e-14 6.97554e-14 0)
(5.10602e-14 3.63387e-14 0)
(1.47282e-14 -5.96921e-14 0)
(-8.53971e-15 -1.72069e-13 0)
(-9.42601e-15 -1.10857e-13 0)
(-2.29065e-14 -1.63765e-13 0)
(-8.25115e-14 -9.86793e-14 0)
(6.70841e-14 1.73063e-14 0)
(2.23828e-13 1.01338e-15 0)
(7.08387e-14 -1.38219e-13 0)
(-1.10263e-13 -1.18682e-13 0)
(-1.08568e-13 -2.14293e-13 0)
(-3.43505e-14 -2.14862e-13 0)
(1.07379e-14 -2.5377e-13 0)
(3.20815e-14 -2.5413e-13 0)
(2.01653e-14 -1.51658e-13 0)
(1.04231e-13 -3.79254e-14 0)
(1.30877e-13 -7.35539e-14 0)
(-1.13829e-13 -9.33476e-14 0)
(-2.90324e-13 -6.76233e-15 0)
(-2.25314e-13 -3.32927e-14 0)
(-1.06418e-13 -7.40253e-14 0)
(-8.13587e-14 6.26938e-14 0)
(-5.08633e-14 1.56011e-13 0)
(6.58514e-14 1.34054e-13 0)
(1.70045e-13 7.43259e-14 0)
(1.1411e-13 -3.1984e-14 0)
(-6.49551e-15 -9.4952e-14 0)
(1.54874e-14 -6.15281e-14 0)
(9.35634e-14 4.14796e-15 0)
(7.85696e-14 -4.83699e-14 0)
(-4.43122e-15 5.35487e-14 0)
(6.30604e-14 8.19663e-14 0)
(6.86532e-14 -3.40529e-14 0)
(-4.64548e-14 -3.38676e-14 0)
(-2.00308e-14 1.49205e-14 0)
(5.37678e-15 -1.31638e-13 0)
(-2.31031e-14 -1.46222e-13 0)
(1.21948e-13 -5.38301e-14 0)
(1.31755e-13 -5.10387e-14 0)
(1.05144e-13 -6.8949e-14 0)
(5.71588e-14 -8.35616e-14 0)
(-1.88866e-14 -8.63046e-15 0)
(-8.22605e-14 -9.35172e-15 0)
(-8.58489e-14 5.32385e-14 0)
(-6.23325e-14 2.35428e-14 0)
(-6.30646e-14 -3.73073e-14 0)
(9.60489e-14 -2.37103e-14 0)
(1.56273e-13 -8.82634e-14 0)
(8.06888e-14 -1.71714e-13 0)
(2.08892e-14 -2.40859e-13 0)
(2.89433e-14 -1.33627e-13 0)
(-5.17246e-14 -1.14755e-13 0)
(-1.0219e-13 -1.39876e-13 0)
(-3.94261e-14 -6.03223e-14 0)
(2.00549e-14 -1.08513e-13 0)
(-6.49086e-14 -7.07546e-14 0)
(-3.05981e-14 -2.9416e-14 0)
(-3.16434e-14 -1.15809e-13 0)
(2.50246e-14 -1.00209e-13 0)
(7.07704e-14 -5.38315e-14 0)
(-2.8371e-15 -8.35976e-14 0)
(-9.77824e-14 -1.16803e-13 0)
(-2.80952e-14 -9.92118e-14 0)
(-2.55127e-14 -1.43594e-13 0)
(-7.19097e-14 -2.51133e-14 0)
(7.86933e-14 8.23346e-14 0)
(1.12305e-13 -9.21087e-15 0)
(-3.81639e-14 -1.23292e-13 0)
(-1.65514e-13 -6.07143e-14 0)
(-2.46986e-13 -1.12067e-13 0)
(-5.18992e-14 -8.56833e-14 0)
(-1.257e-14 -2.69522e-14 0)
(-2.22814e-14 3.78159e-14 0)
(5.08676e-14 -2.02137e-14 0)
(8.29481e-14 -1.15993e-13 0)
(8.70134e-14 -5.83845e-14 0)
(4.84081e-14 -5.78628e-14 0)
(2.78854e-14 -7.27612e-14 0)
(7.87033e-14 -4.49074e-14 0)
(8.36814e-14 -1.2197e-13 0)
(-5.31066e-14 -7.29369e-14 0)
(-6.44388e-15 4.11856e-14 0)
(-1.28661e-14 -5.83719e-14 0)
(6.27946e-15 -1.00179e-13 0)
(6.02952e-14 -7.54767e-14 0)
(-4.95191e-15 -1.28688e-13 0)
(-1.09645e-13 -1.82215e-13 0)
(-6.81196e-14 -3.92151e-14 0)
(1.66289e-14 -6.06407e-14 0)
(9.46466e-14 -1.9903e-14 0)
(1.62029e-13 -5.09625e-14 0)
(7.28443e-14 -1.36564e-13 0)
(-4.45565e-14 -1.97474e-13 0)
(-1.20731e-13 -9.36707e-14 0)
(-7.96946e-14 -9.60248e-14 0)
(-5.5166e-14 -5.86914e-14 0)
(-3.23426e-14 3.8697e-14 0)
(-2.46534e-14 -6.70657e-15 0)
(4.17174e-14 3.65354e-14 0)
(1.94731e-13 -2.97727e-14 0)
(1.14211e-13 -8.6599e-14 0)
(8.09753e-15 -1.39794e-13 0)
(-4.55203e-14 -1.68573e-13 0)
(6.52986e-14 -6.68936e-14 0)
(1.11383e-13 -1.28953e-13 0)
(-2.80529e-14 -4.61546e-14 0)
(2.24145e-14 2.81552e-14 0)
(4.38248e-14 -1.78716e-16 0)
(4.66382e-14 -4.7392e-14 0)
(1.45086e-13 4.08866e-15 0)
(3.79725e-14 -7.42902e-14 0)
(-1.38874e-13 -1.25999e-13 0)
(-5.50143e-14 -4.87756e-14 0)
(-2.16802e-14 -1.25093e-13 0)
(3.10323e-14 -3.87271e-14 0)
(-7.80956e-14 4.91302e-14 0)
(-2.27959e-13 1.11863e-13 0)
(-1.30605e-13 4.33629e-14 0)
(-6.68939e-14 1.11874e-13 0)
(-6.00232e-14 1.77933e-13 0)
(6.14594e-14 1.78527e-13 0)
(3.29573e-14 3.46235e-14 0)
(-1.37892e-14 2.35271e-14 0)
(2.36193e-14 -9.33416e-14 0)
(2.91225e-14 -1.64735e-13 0)
(2.52539e-14 -4.21909e-14 0)
(-5.22285e-14 -5.07981e-15 0)
(-6.18211e-14 -3.6157e-14 0)
(4.07806e-14 -2.7836e-14 0)
(-3.91991e-14 3.59267e-14 0)
(-1.24979e-13 7.05699e-14 0)
(3.16578e-14 7.35471e-14 0)
(-2.30486e-14 -2.58709e-14 0)
(-7.98871e-14 -2.77386e-14 0)
(5.24095e-14 -2.2702e-14 0)
(7.61461e-15 -1.67854e-13 0)
(-9.81619e-14 -1.32969e-13 0)
(3.66978e-14 -1.08573e-14 0)
(1.18943e-13 -1.27098e-13 0)
(2.17624e-13 -4.4743e-14 0)
(1.94802e-13 -8.43698e-14 0)
(1.04153e-14 -1.15735e-13 0)
(-1.26349e-13 -1.05694e-13 0)
(-1.8709e-13 -1.93344e-13 0)
(-1.16207e-13 -1.03324e-13 0)
(3.28353e-14 -1.14882e-13 0)
(9.94833e-14 -2.72129e-14 0)
(1.26957e-13 -9.99314e-14 0)
(-1.62696e-14 -1.57328e-13 0)
(-5.8855e-14 -2.24455e-13 0)
(4.72069e-14 -7.85099e-14 0)
(-1.45575e-15 -1.05399e-13 0)
(6.63428e-14 -9.36067e-14 0)
(1.17662e-13 -1.10668e-13 0)
(1.25564e-14 -1.39969e-13 0)
(-1.56189e-14 -1.2635e-13 0)
(1.36087e-14 -9.90531e-14 0)
(-1.31387e-14 -8.32456e-14 0)
(-3.79457e-14 -1.25541e-13 0)
(-2.08496e-14 -1.56094e-13 0)
(-1.91405e-14 -7.42234e-14 0)
(-2.80733e-14 -8.35757e-14 0)
(-8.09395e-14 -4.54296e-14 0)
(-4.15123e-14 -6.34081e-14 0)
(1.70176e-14 -2.24732e-13 0)
(2.13166e-14 -9.054e-14 0)
(2.67236e-14 -1.13964e-13 0)
(-7.47868e-14 -1.36741e-13 0)
(-5.10055e-14 -1.92079e-13 0)
(-2.76199e-14 -2.19419e-13 0)
(-6.43875e-14 -1.89808e-13 0)
(8.96099e-15 -1.55754e-13 0)
(1.36204e-13 4.69211e-15 0)
(1.4617e-13 -1.04732e-13 0)
(2.38897e-14 -2.27675e-13 0)
(-1.44347e-13 -2.7483e-13 0)
(-1.5514e-13 -2.5398e-13 0)
(-6.70739e-14 -2.4921e-13 0)
(-1.54491e-14 -1.95508e-13 0)
(4.69134e-14 -1.33512e-13 0)
(7.04542e-14 -1.02768e-13 0)
(1.66171e-13 -3.19612e-14 0)
(1.15089e-13 -1.22717e-13 0)
(-1.12948e-13 -1.80651e-13 0)
(-3.09049e-13 -1.18492e-13 0)
(-2.67019e-13 -8.19791e-14 0)
(-5.77557e-14 -9.79229e-14 0)
(1.20992e-14 -5.379e-15 0)
(-3.73763e-14 2.58446e-14 0)
(3.48829e-14 6.09492e-14 0)
(1.53317e-13 -2.88457e-14 0)
(9.69342e-14 -1.06833e-13 0)
(-2.09144e-14 -1.11166e-13 0)
(-3.09671e-15 -9.28854e-14 0)
(4.67123e-14 -7.11477e-14 0)
(7.26833e-14 -6.62558e-14 0)
(3.95846e-14 -3.03846e-14 0)
(1.90179e-14 2.46774e-14 0)
(2.78579e-14 -1.06976e-13 0)
(1.28244e-14 -1.38706e-13 0)
(-1.11705e-13 -5.57267e-14 0)
(-8.23666e-14 -1.45459e-13 0)
(2.22247e-14 -1.22007e-13 0)
(1.56143e-13 -1.17663e-13 0)
(5.45512e-14 -1.46347e-13 0)
(5.62771e-14 -1.4712e-13 0)
(1.10826e-13 -1.24355e-13 0)
(4.90541e-14 -7.45475e-14 0)
(-9.45772e-15 -5.96724e-14 0)
(-6.19816e-14 -6.09135e-14 0)
(-1.06718e-13 -1.03568e-13 0)
(-1.60342e-14 -1.59716e-13 0)
(9.44797e-14 -1.46603e-13 0)
(3.86743e-14 -1.78872e-13 0)
(-1.98166e-14 -2.0414e-13 0)
(9.35234e-14 -2.68396e-13 0)
(1.19429e-13 -3.1628e-13 0)
(-2.89267e-14 -2.75265e-13 0)
(-2.7157e-14 -2.36396e-13 0)
(-2.77512e-14 -2.03584e-13 0)
(-3.06603e-14 -2.04859e-13 0)
(-6.08171e-14 -2.21496e-13 0)
(-7.89275e-14 -1.70428e-13 0)
(4.79769e-15 -2.18244e-13 0)
(9.65767e-14 -2.62044e-13 0)
(7.69572e-14 -2.0268e-13 0)
(-3.60509e-14 -2.33717e-13 0)
(-5.19737e-14 -2.89966e-13 0)
(-2.35478e-14 -1.95355e-13 0)
(-4.2242e-14 -1.18698e-13 0)
(3.05655e-14 -1.13614e-13 0)
(6.86356e-14 5.69053e-14 0)
(1.93657e-14 -4.49548e-14 0)
(-9.53556e-14 -1.57573e-13 0)
(-1.97673e-13 -1.88505e-13 0)
(-2.41867e-13 -1.47416e-13 0)
(-2.29205e-14 -1.19678e-13 0)
(5.64665e-14 -1.42559e-13 0)
(-1.76807e-14 -5.69291e-14 0)
(-1.44151e-16 -3.97773e-14 0)
(1.19109e-13 -8.45206e-14 0)
(1.22153e-13 -1.46061e-13 0)
(3.13904e-14 -1.54519e-13 0)
(3.60767e-14 -1.29997e-13 0)
(6.14821e-14 -1.24638e-13 0)
(3.85912e-14 -1.41331e-13 0)
(-4.74469e-16 -1.95029e-13 0)
(8.46718e-15 -1.92918e-13 0)
(-4.62843e-14 -2.18491e-13 0)
(6.25346e-15 -1.68047e-13 0)
(2.43974e-14 -1.88682e-13 0)
(-9.7266e-14 -1.66113e-13 0)
(-3.06653e-14 -2.14885e-13 0)
(1.82889e-14 -1.37829e-13 0)
(2.09897e-15 -1.56153e-13 0)
(3.05278e-14 -1.26744e-13 0)
(7.29677e-14 -1.53886e-13 0)
(-3.61983e-15 -1.93587e-13 0)
(4.99229e-15 -2.41447e-13 0)
(-6.07694e-14 -2.35555e-13 0)
(-3.33221e-14 -1.65194e-13 0)
(3.24225e-14 -1.51349e-13 0)
(1.52464e-14 -5.47915e-14 0)
(-7.19341e-14 -1.12614e-13 0)
(2.28531e-14 -2.81849e-15 0)
(1.4911e-13 -1.74434e-13 0)
(3.3652e-14 -2.86104e-13 0)
(-7.04818e-14 -3.51602e-13 0)
(3.29072e-14 -2.95922e-13 0)
(1.03695e-13 -1.84607e-13 0)
(8.44203e-14 -1.81e-13 0)
(6.64028e-14 -1.16347e-13 0)
(1.5965e-14 -5.01664e-14 0)
(2.80901e-14 -1.33805e-13 0)
(4.33082e-14 -1.35812e-13 0)
(1.3691e-13 -1.13381e-13 0)
(-3.46795e-14 -1.57847e-13 0)
(-9.2487e-14 -2.25842e-13 0)
(-5.12531e-14 -2.08328e-13 0)
(-4.61217e-14 -2.0578e-13 0)
(4.9127e-14 -1.33991e-13 0)
(-3.05332e-14 -1.25949e-13 0)
(-1.85974e-13 2.0596e-14 0)
(-8.79932e-14 -4.3377e-14 0)
(-1.06363e-14 2.14839e-14 0)
(-2.63089e-14 6.33247e-14 0)
(-4.0438e-14 -1.04689e-14 0)
(-2.06525e-14 -9.77674e-14 0)
(-3.74921e-14 -9.86117e-14 0)
(-7.24271e-14 -1.02865e-13 0)
(9.07115e-14 -1.19859e-13 0)
(7.43162e-14 -1.07454e-13 0)
(-7.7291e-14 -1.28482e-13 0)
(-6.15254e-14 -5.96171e-14 0)
(1.05086e-13 -8.56762e-14 0)
(1.28803e-14 -7.49321e-14 0)
(-9.33656e-14 -3.8748e-14 0)
(-3.37138e-14 -1.428e-14 0)
(-6.13823e-14 -1.21815e-13 0)
(-2.68919e-14 -1.02708e-13 0)
(-1.73842e-14 -5.69224e-14 0)
(-6.20661e-14 -1.18086e-13 0)
(1.12622e-14 -1.08184e-13 0)
(6.93667e-14 -6.23871e-14 0)
(8.48025e-14 -6.86631e-14 0)
(1.91843e-13 -1.13821e-13 0)
(1.24788e-13 -1.65762e-13 0)
(3.44433e-14 -2.00688e-13 0)
(-1.4192e-13 -2.50177e-13 0)
(-1.63018e-13 -2.32376e-13 0)
(-7.4348e-14 -1.8123e-13 0)
(4.4269e-14 -2.23162e-13 0)
(1.01323e-13 -1.49219e-13 0)
(2.19627e-14 -2.2266e-13 0)
(-3.40247e-14 -1.95193e-13 0)
(1.13348e-14 -2.3264e-13 0)
(5.09593e-14 -2.1644e-13 0)
(5.19854e-14 -1.68122e-13 0)
(7.27968e-14 -8.83088e-14 0)
(6.83825e-14 -1.63201e-13 0)
(4.63365e-14 -1.98866e-13 0)
(4.9577e-14 -1.49008e-13 0)
(5.51501e-14 -1.15764e-13 0)
(-5.09563e-14 -1.61207e-13 0)
(-9.95736e-14 -1.39775e-13 0)
(4.09421e-16 -1.88129e-13 0)
(2.69074e-15 -2.16197e-13 0)
(-9.15676e-14 -2.19944e-13 0)
(-1.46837e-13 -1.68472e-13 0)
(-5.30213e-14 -1.4188e-13 0)
(3.06661e-14 -1.76887e-13 0)
(9.28234e-14 -1.58744e-13 0)
(6.32086e-14 -1.92983e-13 0)
(-2.02607e-14 -2.32407e-13 0)
(-7.0136e-14 -1.96417e-13 0)
(-2.61174e-14 -3.04657e-13 0)
(-5.28766e-14 -2.41637e-13 0)
(3.09003e-14 -2.13058e-13 0)
(1.45316e-13 -2.1691e-13 0)
(3.52191e-14 -2.633e-13 0)
(-3.55188e-14 -3.06318e-13 0)
(-8.52076e-14 -3.19466e-13 0)
(-7.91379e-14 -1.99731e-13 0)
(-3.49229e-14 -1.82446e-13 0)
(4.40401e-14 -1.61835e-13 0)
(5.55942e-14 -1.07841e-13 0)
(8.25582e-14 -1.00728e-13 0)
(1.05417e-13 -1.3715e-13 0)
(3.91269e-14 -2.43851e-13 0)
(-1.06695e-13 -2.4034e-13 0)
(-2.11626e-13 -2.22503e-13 0)
(-2.02641e-13 -1.10343e-13 0)
(-6.84837e-14 -6.19866e-14 0)
(-1.50714e-14 -1.47554e-13 0)
(4.43417e-14 -1.41771e-13 0)
(2.98306e-14 -8.68359e-14 0)
(5.52779e-14 -1.41128e-13 0)
(4.65694e-14 -1.78476e-13 0)
(6.98078e-15 -1.55609e-13 0)
(1.63666e-14 -1.17686e-13 0)
(6.41354e-14 -1.20114e-13 0)
(5.23994e-14 -9.0064e-14 0)
(6.61604e-14 -1.5524e-13 0)
(2.85265e-14 -1.46407e-13 0)
(-3.51296e-14 -1.06248e-13 0)
(1.85957e-14 -1.00125e-13 0)
(1.33395e-14 -8.77657e-14 0)
(-6.67524e-14 -3.23489e-15 0)
(-4.91376e-14 -7.85564e-14 0)
(8.0919e-14 -1.64568e-13 0)
(8.04057e-14 -2.16392e-13 0)
(1.13182e-13 -1.44302e-13 0)
(1.66846e-13 -1.65557e-13 0)
(4.63211e-14 -1.58289e-13 0)
(-4.79031e-14 -9.29038e-14 0)
(-1.01412e-13 -1.39882e-13 0)
(-1.39383e-13 -1.72558e-13 0)
(-6.07364e-14 -1.05e-13 0)
(2.61831e-14 -2.41064e-13 0)
(8.97477e-14 -2.27103e-13 0)
(3.60067e-14 -1.99486e-13 0)
(-3.77741e-15 -1.59679e-13 0)
(3.06763e-14 -2.93372e-13 0)
(-1.6209e-14 -3.36641e-13 0)
(-4.22302e-14 -2.90224e-13 0)
(-1.34977e-14 -3.84318e-13 0)
(-4.21183e-14 -3.34508e-13 0)
(-7.04604e-15 -3.31515e-13 0)
(-4.89886e-14 -2.65985e-13 0)
(-8.35379e-14 -2.81444e-13 0)
(9.11644e-14 -2.80503e-13 0)
(1.12439e-13 -2.48005e-13 0)
(-3.67139e-14 -2.32208e-13 0)
(-3.7499e-14 -2.51188e-13 0)
(4.27002e-14 -2.09989e-13 0)
(-1.30536e-14 -1.68904e-13 0)
(7.52192e-14 -2.21121e-13 0)
(1.48549e-13 -1.81024e-13 0)
(-1.99206e-14 -1.88788e-13 0)
(-1.39186e-13 -1.25527e-13 0)
(-1.81454e-13 -2.0355e-13 0)
(-1.68009e-13 -1.24464e-13 0)
(-6.57193e-14 -3.78447e-14 0)
(1.83302e-14 -1.50499e-13 0)
(8.22359e-14 -1.3378e-13 0)
(5.7242e-14 -7.79605e-14 0)
(2.79559e-14 -4.04858e-14 0)
(6.04764e-14 -1.90742e-13 0)
(3.87354e-14 -2.2089e-13 0)
(3.05493e-14 -2.03157e-13 0)
(8.13303e-14 -2.23837e-13 0)
(3.20227e-14 -1.66526e-13 0)
(-7.87892e-14 -2.47535e-13 0)
(-3.91505e-14 -2.16442e-13 0)
(3.99404e-15 -1.90313e-13 0)
(5.50832e-14 -1.09281e-13 0)
(7.10819e-14 -1.59113e-13 0)
(-5.46052e-14 -1.78971e-13 0)
(-8.79647e-14 -1.65544e-13 0)
(-3.06388e-15 -1.73657e-13 0)
(-2.98652e-14 -1.92615e-13 0)
(4.78718e-14 -2.67261e-13 0)
(1.25238e-13 -3.17677e-13 0)
(1.93147e-14 -2.7714e-13 0)
(-2.78158e-14 -1.68733e-13 0)
(-7.11304e-14 -2.6871e-13 0)
(-6.02567e-14 -2.23857e-13 0)
(1.94962e-14 -2.2833e-13 0)
(6.32522e-14 -1.85969e-13 0)
(1.23423e-14 -1.44344e-13 0)
(-4.03223e-14 -1.10528e-13 0)
(-4.9518e-14 -2.43846e-13 0)
(-3.19004e-14 -3.42821e-13 0)
(1.84737e-14 -3.20086e-13 0)
(1.0538e-13 -2.22899e-13 0)
(1.94055e-13 -2.35789e-13 0)
(1.01638e-13 -1.51564e-13 0)
(8.78443e-14 -1.66439e-13 0)
(3.28641e-14 -1.93353e-13 0)
(-8.60894e-14 -1.86604e-13 0)
(4.47732e-14 -1.65349e-13 0)
(1.54722e-13 -1.82294e-13 0)
(-4.33231e-14 -1.99186e-13 0)
(-1.11923e-13 -1.30921e-13 0)
(-5.2958e-14 -1.95581e-13 0)
(-1.17538e-14 -1.99116e-13 0)
(6.16939e-15 -2.1457e-13 0)
(5.36146e-14 -2.39126e-13 0)
(-1.21835e-13 -1.76595e-13 0)
(-7.93007e-14 -2.15737e-14 0)
(-2.68503e-14 -1.17185e-13 0)
(-7.73315e-14 -1.07743e-13 0)
(-1.16434e-13 -9.90063e-14 0)
(-3.71079e-14 -1.24591e-13 0)
(4.33336e-14 -1.60606e-13 0)
(-8.71864e-16 -8.21269e-14 0)
(7.34555e-15 -2.00136e-14 0)
(2.70781e-14 -1.79484e-13 0)
(-6.2407e-15 -1.66712e-13 0)
(-1.25496e-14 -8.9587e-14 0)
(3.5589e-14 -1.24234e-13 0)
(-2.85052e-14 -1.45102e-13 0)
(-3.22599e-14 -1.59384e-13 0)
(-7.54392e-14 -1.46797e-13 0)
(-9.95995e-14 -1.96346e-13 0)
(3.92336e-14 -1.46383e-13 0)
(6.84622e-14 -8.8369e-14 0)
(-4.83411e-14 -7.42117e-14 0)
(-5.0236e-14 -4.68817e-14 0)
(4.05394e-14 -1.07011e-13 0)
(7.19616e-14 -1.0241e-13 0)
(1.28205e-13 -1.76871e-13 0)
(1.22572e-13 -2.77288e-13 0)
(-4.19191e-14 -2.47432e-13 0)
(-1.08445e-13 -2.38569e-13 0)
(-1.02924e-13 -2.05702e-13 0)
(-7.94575e-14 -2.34491e-13 0)
(1.41975e-14 -1.70458e-13 0)
(7.87997e-14 -2.23248e-13 0)
(7.74374e-14 -1.95023e-13 0)
(1.39681e-14 -1.63418e-13 0)
(-6.53279e-14 -1.54499e-13 0)
(5.40565e-14 -1.43311e-13 0)
(1.11907e-13 -1.29583e-13 0)
(4.8713e-14 -1.14346e-13 0)
(2.04271e-14 -5.98158e-14 0)
(3.64296e-14 -8.29262e-14 0)
(2.45123e-14 -1.38638e-13 0)
(1.27888e-14 -2.31735e-13 0)
(-2.78958e-14 -1.76405e-13 0)
(-2.45244e-14 -9.29897e-14 0)
(-4.76152e-14 -1.3221e-13 0)
(-6.99358e-14 -2.46191e-13 0)
(-6.45979e-15 -1.76151e-13 0)
(-4.70064e-14 -7.70913e-14 0)
(-9.30468e-14 -6.59466e-14 0)
(-2.64537e-14 -8.51416e-14 0)
(8.6803e-14 -7.77499e-14 0)
(2.00066e-14 -1.26226e-13 0)
(-7.55742e-14 -2.01104e-13 0)
(-1.06287e-13 -2.60437e-13 0)
(-5.90216e-14 -2.61547e-13 0)
(4.51405e-15 -2.61815e-13 0)
(1.11731e-14 -2.09687e-13 0)
(6.89886e-14 -3.32837e-13 0)
(4.72816e-14 -3.2774e-13 0)
(-3.28259e-15 -3.11014e-13 0)
(-2.30415e-15 -2.56873e-13 0)
(-4.10473e-15 -2.04553e-13 0)
(-4.9523e-15 -1.46267e-13 0)
(4.27821e-14 -8.41646e-14 0)
(7.45398e-14 -1.09482e-13 0)
(3.37557e-14 -1.23492e-13 0)
(2.06019e-14 -2.57358e-13 0)
(3.84125e-14 -2.58506e-13 0)
(-7.43011e-14 -2.58493e-13 0)
(-1.58153e-13 -2.62199e-13 0)
(-1.39029e-13 -2.17457e-13 0)
(-7.78813e-14 -1.27189e-13 0)
(-6.03405e-14 -1.66183e-13 0)
(5.09417e-14 -1.59082e-13 0)
(8.42631e-14 -2.50733e-13 0)
(6.25774e-14 -1.90299e-13 0)
(6.90519e-14 -1.7023e-13 0)
(3.10394e-14 -2.09181e-13 0)
(3.06759e-15 -2.0749e-13 0)
(6.92918e-14 -1.46289e-13 0)
(9.37029e-14 -9.60706e-14 0)
(2.06061e-14 -3.50276e-14 0)
(4.71743e-14 -6.24366e-14 0)
(2.88946e-14 -6.9915e-14 0)
(-1.68117e-14 -5.30975e-14 0)
(2.47278e-14 -1.24903e-13 0)
(-6.20866e-14 -1.22284e-13 0)
(-9.06143e-14 -1.22491e-13 0)
(-6.31311e-15 -8.32397e-14 0)
(5.8725e-14 -1.38203e-13 0)
(7.01454e-14 -1.74772e-13 0)
(1.32255e-13 -2.53014e-13 0)
(1.10007e-13 -2.20047e-13 0)
(3.60469e-14 -1.72131e-13 0)
(-1.01575e-13 -1.24259e-13 0)
(-1.11467e-13 -1.71677e-13 0)
(-7.75357e-14 -1.60721e-13 0)
(-7.36467e-14 -1.898e-13 0)
(5.70379e-14 -2.25429e-13 0)
(4.89514e-14 -3.22713e-13 0)
(1.42619e-14 -2.66519e-13 0)
(-1.34996e-14 -2.59586e-13 0)
(-9.17024e-15 -2.92617e-13 0)
(-6.50708e-14 -2.93212e-13 0)
(-6.07765e-14 -2.62727e-13 0)
(-2.54229e-14 -2.46347e-13 0)
(2.7463e-14 -2.38501e-13 0)
(-1.1673e-14 -2.78082e-13 0)
(-1.24434e-14 -1.85455e-13 0)
(9.44059e-14 -9.30886e-14 0)
(9.34687e-14 -1.30071e-13 0)
(-4.42308e-14 -8.01453e-14 0)
(-4.75602e-14 -1.34165e-13 0)
(4.14927e-14 -1.4615e-13 0)
(-5.16528e-14 -1.67141e-13 0)
(4.99478e-14 -2.36872e-13 0)
(1.70187e-13 -3.11614e-13 0)
(4.39633e-14 -2.32374e-13 0)
(-1.35188e-13 -2.27542e-13 0)
(-1.92185e-13 -2.11672e-13 0)
(-9.4294e-14 -2.2247e-13 0)
(-5.02693e-14 -1.53279e-13 0)
(-2.18883e-14 -1.08272e-13 0)
(8.06573e-14 -1.71768e-13 0)
(8.04349e-14 -2.01102e-13 0)
(-1.48281e-14 -1.4001e-13 0)
(-1.31186e-14 -1.51169e-13 0)
(4.063e-14 -1.9799e-13 0)
(3.16814e-14 -1.81807e-13 0)
(7.11344e-14 -1.47381e-13 0)
(1.32557e-14 -1.65306e-13 0)
(-4.55881e-14 -1.40693e-13 0)
(2.47502e-14 -1.11064e-13 0)
(5.2031e-14 -3.40511e-14 0)
(8.48872e-14 2.75274e-14 0)
(-3.84952e-14 -2.0406e-14 0)
(-1.01e-13 -1.58375e-13 0)
(-4.96159e-14 -9.87086e-14 0)
(2.05683e-14 -3.71659e-14 0)
(-6.07482e-14 -5.08336e-14 0)
(-8.46387e-14 -1.60367e-13 0)
(3.95433e-14 -2.96639e-13 0)
(9.76101e-14 -2.95261e-13 0)
(1.79336e-14 -2.72309e-13 0)
(-8.76486e-14 -2.37216e-13 0)
(-5.33385e-15 -2.27799e-13 0)
(4.6264e-14 -1.752e-13 0)
(3.60379e-14 -1.76243e-13 0)
(1.96584e-14 -1.20534e-13 0)
(-3.8154e-14 -1.44404e-13 0)
(-7.31987e-14 -7.87805e-14 0)
(-4.11743e-14 -9.91758e-14 0)
(3.86185e-14 -8.73239e-14 0)
(1.34048e-13 -8.44998e-14 0)
(1.86764e-13 -1.18071e-13 0)
(1.57438e-13 -9.53988e-14 0)
(5.43619e-14 -1.11586e-13 0)
(-1.02982e-14 -1.80735e-13 0)
(2.62143e-14 -9.39166e-14 0)
(8.01261e-14 -1.84837e-14 0)
(9.69697e-14 -3.99535e-14 0)
(-4.6283e-14 -8.096e-14 0)
(-1.37996e-13 -1.12642e-13 0)
(-1.09916e-13 -9.78285e-14 0)
(-3.03899e-14 -1.50298e-13 0)
(-4.04567e-14 -2.16572e-13 0)
(1.91322e-14 -2.5244e-13 0)
(7.01141e-14 -1.86998e-13 0)
(-2.84256e-14 -7.42101e-14 0)
(-8.13232e-14 -2.58175e-14 0)
(-5.78772e-15 -1.22898e-13 0)
(-4.89297e-14 -7.33294e-14 0)
(-1.30978e-13 -3.42013e-14 0)
(-3.00168e-14 -1.18048e-13 0)
(4.60841e-14 -2.00377e-13 0)
(-7.39124e-15 -1.51903e-13 0)
(-3.89202e-14 -2.11008e-13 0)
(2.19968e-14 -1.92594e-13 0)
(1.76236e-14 -1.62192e-13 0)
(6.57585e-14 -5.94891e-14 0)
(-3.10578e-15 -1.00416e-13 0)
(-8.53541e-14 -1.01621e-13 0)
(-8.23534e-14 -1.44877e-13 0)
(-8.26299e-14 -8.61009e-14 0)
(8.1936e-14 3.44261e-15 0)
(3.59143e-14 -6.50632e-14 0)
(-3.73261e-14 -1.36307e-13 0)
(-3.22563e-14 -1.18276e-13 0)
(2.68651e-15 -9.83276e-14 0)
(3.33937e-14 -1.32706e-13 0)
(1.04304e-14 -1.61189e-13 0)
(3.83288e-14 -2.74868e-13 0)
(5.32282e-14 -2.16167e-13 0)
(-3.65174e-14 -1.55279e-13 0)
(-1.14266e-13 -1.75034e-13 0)
(-2.46456e-14 -1.86277e-13 0)
(4.03209e-14 -1.30708e-13 0)
(3.5808e-14 -1.48236e-13 0)
(2.34075e-14 -1.88804e-13 0)
(2.20238e-14 -2.73456e-13 0)
(-2.96023e-14 -2.0575e-13 0)
(5.04278e-14 -5.63043e-14 0)
(6.44106e-14 -3.42512e-14 0)
(8.35615e-14 -6.88166e-14 0)
(9.8362e-14 -2.13527e-14 0)
(2.61358e-14 1.3852e-15 0)
(-2.98512e-14 -4.37351e-14 0)
(1.02569e-14 -1.1525e-13 0)
(4.08284e-15 -4.0457e-14 0)
(8.86104e-15 -1.57434e-14 0)
(-8.03646e-14 -1.67834e-14 0)
(-5.012e-14 -9.62413e-14 0)
(5.00526e-14 -5.78396e-14 0)
(-5.17105e-14 -1.76988e-14 0)
(-1.04545e-13 3.49136e-14 0)
(-1.73389e-14 6.41424e-14 0)
(4.80394e-14 3.10893e-14 0)
(-1.25239e-14 -4.61479e-15 0)
(-9.93694e-14 -6.99105e-14 0)
(-9.22498e-14 -1.06519e-13 0)
(-3.93398e-14 -5.46406e-14 0)
(1.92524e-15 -1.17086e-13 0)
(1.65639e-14 -7.7026e-14 0)
(2.71555e-14 -1.14503e-13 0)
(7.26171e-14 -1.03188e-13 0)
(1.58626e-14 -8.48897e-14 0)
(1.99345e-14 -6.8495e-14 0)
(1.80336e-15 -1.10177e-13 0)
(6.54471e-14 -7.08587e-14 0)
(8.05959e-14 -3.28655e-14 0)
(4.72219e-14 -9.0086e-14 0)
(-1.73406e-14 -5.28974e-14 0)
(-3.74355e-14 -1.19705e-13 0)
(3.47865e-14 -1.53023e-13 0)
(-8.81933e-14 -1.27124e-13 0)
(-1.74672e-13 -1.79259e-13 0)
(-1.01033e-13 -1.374e-13 0)
(-2.01739e-14 -1.66819e-13 0)
(-4.20584e-15 -5.54176e-14 0)
(5.92911e-15 -5.15812e-14 0)
(5.22e-14 -1.76348e-13 0)
(5.84215e-14 -1.4086e-13 0)
(1.57497e-14 -1.9162e-13 0)
(-1.52793e-14 -1.35024e-13 0)
(4.90921e-14 -7.28128e-14 0)
(1.1707e-13 -4.22923e-14 0)
(1.41792e-13 -9.61616e-14 0)
(1.10012e-13 4.64331e-14 0)
(-1.50703e-14 5.43222e-14 0)
(-2.15997e-14 -2.54973e-14 0)
(-9.7126e-15 -9.92222e-14 0)
(-7.30827e-14 -1.1584e-13 0)
(-8.31978e-14 -2.03925e-13 0)
(-8.81437e-15 -1.07372e-13 0)
(6.63906e-14 -1.2291e-14 0)
(3.37397e-14 -1.44495e-14 0)
(5.7922e-14 -3.93593e-14 0)
(1.10777e-13 -8.48603e-14 0)
(7.34093e-14 -1.18614e-13 0)
(5.42919e-14 -1.80083e-13 0)
(-7.42115e-14 -1.54514e-13 0)
(-1.61655e-13 -5.49094e-14 0)
(-6.14e-14 -1.00946e-13 0)
(-1.79111e-14 -2.94508e-14 0)
(-4.75651e-14 -1.13896e-13 0)
(-4.2189e-14 -2.41586e-13 0)
(5.69261e-14 -2.73394e-13 0)
(2.44133e-14 -1.92578e-13 0)
(-3.91824e-14 -1.18721e-13 0)
(-1.15683e-14 -1.6473e-13 0)
(2.99116e-14 -7.95616e-14 0)
(1.76262e-14 -6.2305e-14 0)
(-4.38763e-14 -8.43685e-14 0)
(-6.33529e-15 -1.806e-13 0)
(7.7211e-14 -1.20645e-13 0)
(1.24346e-13 -3.55542e-14 0)
(1.10584e-13 -1.36631e-13 0)
(-5.45207e-14 -9.84777e-14 0)
(-6.35602e-14 -2.76814e-14 0)
(4.05266e-14 -3.71866e-14 0)
(-1.87174e-14 -8.82048e-14 0)
(1.04202e-14 -1.37778e-14 0)
(1.39384e-13 -1.21229e-13 0)
(2.85765e-14 -1.20441e-13 0)
(-1.43179e-13 -1.44127e-13 0)
(-1.70523e-13 -1.67342e-13 0)
(-1.17344e-13 -1.27953e-13 0)
(-5.19833e-15 -1.05487e-13 0)
(2.53444e-14 -2.78392e-14 0)
(1.99939e-14 -5.30756e-14 0)
(-2.32455e-15 -1.43592e-13 0)
(5.72982e-14 -1.96775e-13 0)
(-7.79754e-15 -1.32231e-13 0)
(9.78323e-15 -5.78742e-14 0)
(5.66916e-14 -4.72934e-14 0)
(6.56633e-14 3.68526e-14 0)
(1.62675e-14 2.76836e-14 0)
(-2.57023e-15 9.42019e-14 0)
(5.39576e-14 6.21557e-14 0)
(8.98423e-14 8.68239e-14 0)
(9.28765e-14 7.41583e-15 0)
(-8.21528e-14 -1.29827e-14 0)
(-1.39313e-13 -4.8818e-14 0)
(-9.44979e-15 -1.80504e-14 0)
(2.23276e-14 5.14551e-14 0)
(-1.17718e-13 1.53238e-14 0)
(-9.27139e-14 -2.49855e-14 0)
(-1.43921e-14 -8.84628e-14 0)
(4.7052e-14 -1.45188e-13 0)
(1.61537e-14 -1.85187e-13 0)
(-2.97484e-14 -1.64018e-13 0)
(1.03132e-14 -1.19477e-13 0)
(5.88507e-14 -9.44016e-14 0)
(6.74625e-14 -2.49639e-14 0)
(3.4392e-15 -5.25681e-15 0)
(-2.42721e-14 -5.02837e-14 0)
(7.0002e-15 5.046e-14 0)
(1.89852e-14 1.69213e-14 0)
(1.69928e-14 9.41172e-14 0)
(6.42247e-14 -1.98871e-14 0)
(1.45851e-13 5.33268e-15 0)
(1.39426e-13 -5.56464e-14 0)
(9.6616e-14 -1.35367e-14 0)
(4.48592e-14 -8.70071e-15 0)
(8.8694e-14 1.11755e-14 0)
(1.61035e-13 -5.87137e-15 0)
(4.664e-14 1.46223e-14 0)
(-1.39812e-13 -2.45305e-14 0)
(-1.48703e-13 -6.52939e-14 0)
(-6.88668e-14 1.13849e-14 0)
(-6.96962e-14 -1.12677e-14 0)
(-6.10543e-14 -4.73816e-15 0)
(6.03248e-14 -7.38833e-14 0)
(5.86427e-14 -6.85952e-14 0)
(2.59609e-14 -1.10559e-13 0)
(-9.04158e-14 -2.19644e-14 0)
(-7.31819e-14 5.15472e-14 0)
(4.76145e-15 5.50284e-14 0)
(-1.17464e-13 7.10781e-14 0)
(-1.23418e-13 1.56342e-14 0)
(4.29787e-15 -8.51138e-14 0)
(-2.2411e-14 -2.17308e-13 0)
(3.02365e-14 -1.80309e-13 0)
(4.20115e-14 -6.97108e-14 0)
(7.79798e-14 -5.72929e-14 0)
(4.83318e-14 2.48842e-14 0)
(-4.94607e-14 -2.37991e-14 0)
(-7.83803e-14 -2.09736e-14 0)
(-5.9612e-14 -5.30024e-14 0)
(2.65199e-14 3.71013e-14 0)
(9.77398e-14 4.2786e-14 0)
(-6.24356e-14 -6.77101e-14 0)
(-8.60416e-14 -1.5189e-13 0)
(1.28093e-14 -1.58256e-13 0)
(4.39348e-14 -4.89203e-14 0)
(2.58307e-14 -7.11379e-14 0)
(-3.74771e-14 -2.37423e-14 0)
(1.58519e-14 -4.8139e-14 0)
(6.98282e-14 -5.17094e-15 0)
(-2.72612e-14 -3.6267e-14 0)
(-9.59934e-14 -5.59421e-14 0)
(-5.52757e-14 -6.64341e-14 0)
(3.23604e-14 -5.72066e-14 0)
(4.6707e-14 -4.21065e-14 0)
(-2.78117e-14 -8.44185e-14 0)
(-7.0469e-14 -1.78842e-13 0)
(-3.54988e-14 -2.07443e-13 0)
(1.33084e-13 -6.06971e-14 0)
(8.68584e-14 1.90367e-14 0)
(4.91201e-14 2.87709e-15 0)
(1.01248e-13 3.71317e-15 0)
(1.83211e-14 -1.43648e-14 0)
(-8.38877e-14 -5.9801e-14 0)
(-2.10817e-14 -3.01128e-14 0)
(5.40462e-14 -4.3868e-14 0)
(-1.24521e-14 -4.47094e-14 0)
(-1.12757e-13 -1.07235e-13 0)
(-8.31633e-14 -2.30713e-14 0)
(2.67269e-14 -5.44075e-14 0)
(3.43184e-14 -1.13749e-14 0)
(-3.14205e-14 2.15641e-14 0)
(-3.40008e-14 5.92979e-14 0)
(-1.22225e-14 -4.04053e-14 0)
(-7.15283e-14 -6.22398e-14 0)
(-1.27392e-13 -9.8875e-14 0)
(-6.37755e-14 -3.81411e-14 0)
(-7.34663e-14 1.16701e-15 0)
(-7.62667e-15 -7.92412e-15 0)
(5.92747e-14 -3.52909e-14 0)
(2.99589e-14 -1.67139e-14 0)
(8.4211e-14 -5.9266e-16 0)
(7.91954e-14 2.37411e-14 0)
(1.70697e-14 5.09183e-14 0)
(-4.39347e-14 8.09867e-14 0)
(5.2154e-14 4.98729e-14 0)
(3.85384e-15 -1.41849e-14 0)
(4.07326e-14 -1.27251e-13 0)
(9.72584e-15 -1.00636e-13 0)
(-4.66239e-14 -4.85e-14 0)
(2.29296e-14 -2.20562e-14 0)
(-1.19963e-13 -6.93105e-14 0)
(-2.09377e-13 -7.44415e-14 0)
(-1.24018e-13 -1.77249e-14 0)
(1.76912e-14 -2.87458e-15 0)
(4.95083e-14 -1.90831e-15 0)
(-4.24918e-14 -2.6361e-14 0)
(-1.04598e-14 -1.62633e-14 0)
(1.00417e-14 -1.02775e-13 0)
(4.26693e-14 -1.2389e-13 0)
(1.1478e-13 -7.39026e-14 0)
(7.71668e-14 -2.61636e-14 0)
(1.02417e-13 -1.5422e-14 0)
(1.71192e-13 -5.11715e-15 0)
(1.38978e-13 5.48912e-15 0)
(-5.57847e-14 3.83425e-14 0)
(-1.08492e-13 -5.66305e-14 0)
(-8.4086e-14 -1.2096e-13 0)
(-1.3938e-13 -1.54328e-13 0)
(-5.97614e-14 -1.35534e-13 0)
(1.11659e-13 -3.56758e-14 0)
(1.33121e-13 4.37396e-14 0)
(4.83232e-14 2.75216e-14 0)
(-1.74127e-14 2.84876e-14 0)
(3.11146e-14 7.28584e-14 0)
(3.60462e-14 6.1066e-14 0)
(-3.05166e-15 7.14121e-14 0)
(1.34032e-14 -2.83773e-14 0)
(-3.76495e-14 2.81939e-14 0)
(-7.17525e-14 6.96899e-14 0)
(-1.07299e-13 3.40708e-14 0)
(-1.79413e-13 -5.06345e-14 0)
(-1.22419e-13 -7.66357e-15 0)
(8.0966e-15 -7.68172e-14 0)
(9.12485e-14 -1.00005e-13 0)
(2.42932e-14 -4.04896e-14 0)
(3.64389e-15 -7.68201e-15 0)
(3.93541e-14 -4.80512e-14 0)
(1.99462e-14 -8.04834e-14 0)
(5.19256e-15 -3.5652e-14 0)
(-4.50509e-14 -3.48908e-14 0)
(7.79542e-14 -1.30719e-14 0)
(7.75814e-14 -7.80992e-14 0)
(5.69602e-14 -1.14835e-13 0)
(2.14145e-14 -9.82601e-14 0)
(-1.32848e-14 -1.57148e-14 0)
(-7.27255e-15 -6.59795e-14 0)
(3.34374e-14 -8.36008e-14 0)
(5.81191e-14 1.20555e-14 0)
(5.40107e-14 -8.21031e-15 0)
(-7.20271e-15 1.84523e-14 0)
(-1.32664e-13 6.77251e-14 0)
(-1.53247e-13 5.82953e-15 0)
(-3.25998e-14 5.22215e-14 0)
(4.80678e-14 1.23026e-13 0)
(4.61711e-14 1.00446e-13 0)
(-2.423e-14 7.91637e-14 0)
(-5.24212e-14 7.62277e-14 0)
(1.02523e-14 2.5099e-14 0)
(6.35178e-14 -2.20937e-14 0)
(7.3378e-14 8.29129e-14 0)
(9.92873e-14 7.38359e-14 0)
(1.48715e-13 6.08617e-14 0)
(3.44865e-14 5.68512e-14 0)
(-4.32095e-14 1.76928e-13 0)
(-1.33759e-14 1.4574e-13 0)
(4.73915e-14 1.0872e-13 0)
(-1.6135e-15 3.11132e-14 0)
(-8.16184e-14 -2.81849e-14 0)
(-9.7541e-14 5.06137e-14 0)
(2.4131e-14 9.2819e-14 0)
(3.61304e-14 4.36203e-14 0)
(-1.28512e-13 1.42131e-14 0)
(-1.21083e-13 -2.20242e-14 0)
(-5.37948e-14 -4.73033e-14 0)
(-3.63716e-14 -5.33373e-14 0)
(-5.59567e-14 -7.15641e-15 0)
(2.12311e-15 2.80213e-14 0)
(4.0964e-14 8.53753e-14 0)
(1.05194e-13 1.77747e-14 0)
(1.11306e-13 -4.42598e-14 0)
(-1.84e-14 -3.27631e-14 0)
(-1.00831e-14 -7.0049e-14 0)
(2.56034e-14 -1.07958e-14 0)
(6.52155e-14 9.78378e-14 0)
(2.03831e-14 1.42542e-13 0)
(2.73849e-14 1.02065e-13 0)
(1.20412e-13 7.31274e-14 0)
(1.11164e-13 -3.31642e-14 0)
(9.49027e-14 8.38822e-15 0)
(5.86428e-14 5.70321e-14 0)
(1.08936e-13 4.78688e-14 0)
(1.08186e-13 2.29876e-14 0)
(4.60041e-14 -6.03635e-14 0)
(-1.30501e-13 -7.5658e-14 0)
(-9.98527e-14 -9.2957e-15 0)
(-6.42657e-14 4.33272e-14 0)
(-8.94871e-14 5.93793e-14 0)
(-4.12322e-14 5.66449e-14 0)
(2.5587e-14 3.19497e-14 0)
(2.39376e-14 3.33337e-14 0)
(-1.73728e-14 -3.07607e-14 0)
(3.92905e-14 2.08951e-14 0)
(4.32373e-14 1.03001e-13 0)
(-5.19336e-14 1.15145e-13 0)
(-1.35145e-13 2.77643e-14 0)
(-1.62303e-13 1.10795e-13 0)
(-1.05672e-13 1.49797e-13 0)
(-6.6448e-14 -1.15091e-14 0)
(8.33981e-14 -1.4886e-14 0)
(1.1286e-13 2.01593e-14 0)
(6.75023e-14 3.55447e-14 0)
(9.53274e-14 4.06302e-15 0)
(-5.44521e-14 1.0557e-14 0)
(-1.25706e-13 -5.07385e-14 0)
(-3.87492e-14 -3.14934e-14 0)
(7.56716e-14 8.06172e-14 0)
(4.01021e-15 -6.41158e-14 0)
(-1.42626e-13 -1.34226e-13 0)
(-6.29755e-14 -1.01403e-13 0)
(6.45075e-14 -4.07382e-14 0)
(3.805e-14 -8.39268e-14 0)
(4.27589e-14 -1.15173e-13 0)
(1.0274e-14 -6.79789e-14 0)
(3.93478e-14 -2.28452e-14 0)
(9.00239e-14 2.88645e-14 0)
(-7.16743e-14 -1.56815e-14 0)
(-1.17465e-13 1.98981e-14 0)
(-4.40055e-14 1.94652e-14 0)
(3.45072e-14 -5.20736e-14 0)
(1.65251e-14 -7.92852e-14 0)
(-8.57747e-14 -7.18395e-14 0)
(-8.87322e-14 4.08578e-15 0)
(1.43657e-14 -4.29563e-14 0)
(2.48239e-13 2.11172e-15 0)
(1.20411e-13 -2.58523e-14 0)
(4.64472e-14 -2.33824e-14 0)
(4.85916e-14 -5.3727e-15 0)
(-2.4893e-14 -2.03887e-15 0)
(-2.06181e-14 3.34849e-14 0)
(2.79122e-14 6.17993e-14 0)
(1.66327e-14 -2.3288e-14 0)
(-6.81586e-14 -1.44098e-14 0)
(-7.85397e-14 -2.02424e-14 0)
(-1.15202e-14 5.20914e-14 0)
(5.02792e-14 -4.00516e-15 0)