/*--------------------------------*- C++ -*----------------------------------*\
  =========                 |
  \\      /  F ield         | OpenFOAM: The Open Source CFD Toolbox
   \\    /   O peration     | Website:  https://openfoam.org
    \\  /    A nd           | Version:  13
     \\/     M anipulation  |
\*---------------------------------------------------------------------------*/
FoamFile
{
    format      ascii;
    class       volVectorField;
    location    "0.0012";
    object      U;
}
// * * * * * * * * * * * * * * * * * * * * * * * * * * * * * * * * * * * * * //

dimensions      [0 1 -1 0 0 0 0];

internalField   nonuniform List<vector> 
33334
(
(-3.83101e-15 -3.20586e-14 0)
(1.0021e-13 -1.06737e-13 0)
(1.13284e-14 -1.45349e-13 0)
(2.74303e-15 -2.03626e-13 0)
(-6.74917e-14 -2.58618e-13 0)
(-8.53818e-14 -1.84086e-13 0)
(-9.60082e-14 -1.71923e-13 0)
(-2.10061e-13 -1.63465e-13 0)
(-2.44887e-13 -1.21526e-13 0)
(-1.85063e-13 -8.721e-14 0)
(-2.27516e-13 -1.50428e-13 0)
(-1.90641e-13 -1.3065e-14 0)
(-1.09435e-13 4.18046e-14 0)
(-2.21247e-13 5.78631e-14 0)
(-1.30847e-13 9.09589e-14 0)
(9.52157e-15 3.78273e-14 0)
(1.16578e-13 1.40627e-14 0)
(8.44704e-14 2.53728e-14 0)
(1.52194e-13 -6.36065e-14 0)
(4.35176e-14 -9.35618e-14 0)
(1.20732e-13 -7.33779e-14 0)
(2.55621e-13 -9.77192e-14 0)
(2.20004e-13 -1.58801e-13 0)
(1.47658e-13 -1.84389e-13 0)
(1.25881e-13 -1.46237e-13 0)
(1.49356e-13 -1.2618e-13 0)
(1.69584e-14 -1.26741e-13 0)
(2.88658e-14 -4.8122e-14 0)
(3.6163e-14 -6.22753e-14 0)
(-9.22386e-14 -9.83872e-14 0)
(-1.43895e-13 -8.49797e-14 0)
(-3.18329e-13 -5.98398e-14 0)
(-2.58519e-13 3.72739e-14 0)
(-5.5423e-14 4.11568e-14 0)
(-8.17925e-14 1.43964e-14 0)
(-1.7081e-13 8.25393e-15 0)
(-1.90883e-13 2.15368e-14 0)
(-1.13355e-13 6.75783e-14 0)
(-4.83804e-14 1.41827e-14 0)
(4.31482e-14 -1.87358e-14 0)
(1.85629e-13 -6.56703e-14 0)
(1.55302e-13 -1.23736e-13 0)
(-7.51474e-14 -9.72428e-14 0)
(-1.5292e-13 -1.55235e-13 0)
(-1.81303e-13 -1.2276e-13 0)
(-6.378e-14 -1.96471e-15 0)
(8.2866e-14 -1.12341e-14 0)
(2.95158e-14 -8.04909e-14 0)
(-4.00123e-14 -4.36187e-14 0)
(-6.29949e-14 -5.61827e-14 0)
(-1.27557e-13 -9.77236e-14 0)
(-2.6275e-13 -4.89541e-14 0)
(-1.79034e-13 7.43128e-14 0)
(-5.52515e-15 7.80424e-14 0)
(-7.32961e-14 2.06121e-14 0)
(-1.37119e-13 3.39516e-14 0)
(-6.03704e-14 2.18073e-14 0)
(5.19483e-14 3.87876e-14 0)
(1.32777e-13 -5.26677e-14 0)
(-8.57145e-15 -7.31574e-14 0)
(-1.03149e-13 -1.69795e-13 0)
(-1.74829e-13 -1.09838e-13 0)
(-2.18845e-13 -1.95029e-14 0)
(-1.25163e-13 -1.76118e-14 0)
(3.53296e-14 -1.15149e-13 0)
(1.07786e-13 -1.72284e-13 0)
(-5.22816e-14 -1.37792e-13 0)
(-1.61276e-13 -1.42774e-13 0)
(-2.03686e-13 -5.14646e-14 0)
(-9.05302e-14 -2.33786e-14 0)
(-3.20888e-14 8.40294e-14 0)
(1.51435e-13 6.5191e-14 0)
(3.08719e-13 -1.04755e-13 0)
(3.16603e-13 -6.78459e-14 0)
(2.0503e-13 -8.92827e-14 0)
(5.08748e-14 -4.1956e-14 0)
(-8.89566e-14 -1.29227e-13 0)
(-1.66599e-13 7.43725e-15 0)
(-9.97844e-14 6.19129e-14 0)
(-5.16279e-14 4.83356e-14 0)
(-6.39427e-16 -1.15689e-14 0)
(-7.54578e-14 2.382e-14 0)
(-1.11138e-13 9.00871e-14 0)
(-4.82156e-14 1.45551e-13 0)
(4.85258e-14 9.80602e-14 0)
(1.50338e-14 7.27761e-14 0)
(-6.98745e-14 1.72229e-13 0)
(-1.9264e-14 1.23705e-13 0)
(-5.95178e-14 1.67263e-14 0)
(-9.83481e-14 -4.30517e-15 0)
(-2.89957e-14 6.30285e-15 0)
(-2.14215e-13 -1.32907e-14 0)
(-2.27105e-13 2.6144e-14 0)
(-1.13756e-13 -1.92499e-14 0)
(3.22247e-14 1.67883e-14 0)
(-7.15792e-14 -1.67308e-14 0)
(-2.44593e-13 6.346e-14 0)
(-1.56242e-13 -1.12634e-14 0)
(7.53787e-14 -1.44134e-14 0)
(1.55394e-13 -9.1645e-14 0)
(2.11285e-14 2.03151e-14 0)
(6.32599e-14 -1.18638e-14 0)
(1.31031e-14 1.8923e-14 0)
(-1.84979e-13 -3.47598e-14 0)
(-1.61797e-13 5.90042e-14 0)
(-1.79512e-15 3.53833e-14 0)
(8.05097e-14 3.29932e-14 0)
(2.15493e-13 2.128e-15 0)
(1.49934e-13 -9.58643e-14 0)
(-1.10952e-14 -8.63852e-14 0)
(9.39491e-16 -2.85658e-14 0)
(6.93093e-14 -6.35192e-14 0)
(-5.48365e-15 -1.5312e-13 0)
(1.91979e-14 -5.43887e-14 0)
(1.24982e-13 -8.11609e-14 0)
(1.24547e-13 -1.90889e-14 0)
(-3.10064e-14 -3.73119e-14 0)
(-4.8016e-14 6.66928e-14 0)
(-7.07588e-14 5.07378e-15 0)
(-1.20587e-13 7.0152e-14 0)
(-4.93284e-14 9.9015e-14 0)
(-1.34386e-13 7.20066e-14 0)
(-2.463e-13 1.98353e-14 0)
(-1.74691e-13 5.57967e-14 0)
(-1.21787e-13 -1.44376e-14 0)
(-1.14357e-13 3.66505e-14 0)
(-3.69192e-15 1.88171e-14 0)
(2.90956e-14 -4.96657e-14 0)
(-1.31459e-13 -1.13841e-13 0)
(-7.49246e-14 1.50239e-14 0)
(-3.06241e-14 2.83066e-14 0)
(1.69828e-14 9.19731e-14 0)
(4.01764e-14 6.49575e-14 0)
(3.07391e-15 1.23731e-13 0)
(9.3752e-14 7.73727e-14 0)
(3.46444e-14 4.23519e-14 0)
(-1.76423e-14 8.40263e-14 0)
(-8.48051e-14 1.43022e-14 0)
(-1.66328e-14 2.89671e-14 0)
(1.03829e-13 -1.73669e-14 0)
(2.87672e-14 -4.40588e-15 0)
(-7.23404e-14 7.60089e-14 0)
(5.24695e-14 8.26326e-14 0)
(9.64564e-14 -6.97388e-14 0)
(9.48792e-14 1.03345e-13 0)
(2.01791e-13 1.15863e-13 0)
(7.91951e-14 7.64283e-14 0)
(-8.80565e-14 6.7195e-14 0)
(-5.2164e-14 1.33372e-13 0)
(-9.48861e-15 8.05333e-14 0)
(1.04675e-13 7.40295e-14 0)
(2.05244e-13 -2.99372e-14 0)
(5.73274e-14 -4.47384e-14 0)
(-1.25805e-13 -1.28153e-13 0)
(-1.63568e-13 -2.24178e-14 0)
(-2.77384e-14 2.56071e-14 0)
(1.62774e-13 1.15948e-13 0)
(1.25478e-13 2.75917e-14 0)
(4.71509e-14 4.13261e-14 0)
(8.54001e-14 3.16502e-14 0)
(-3.47611e-14 -3.66492e-14 0)
(-1.29528e-13 -1.87565e-14 0)
(-1.24617e-13 -5.78707e-14 0)
(-2.30895e-14 -4.13202e-14 0)
(6.17136e-14 -1.43056e-13 0)
(6.57523e-14 -3.27213e-14 0)
(-4.04881e-14 -5.89481e-14 0)
(3.57434e-14 -1.66568e-13 0)
(3.47016e-14 -2.28443e-13 0)
(-2.36137e-14 -2.57666e-13 0)
(-9.19912e-14 -3.04792e-13 0)
(-7.38106e-14 -2.95402e-13 0)
(-3.74545e-14 -3.40321e-13 0)
(-1.09313e-13 -3.78804e-13 0)
(-1.70007e-13 -2.96463e-13 0)
(-2.08901e-13 -2.93051e-13 0)
(-2.70569e-13 -2.03336e-13 0)
(-2.27278e-13 -1.18857e-13 0)
(-1.10169e-13 -5.82407e-14 0)
(-9.56864e-14 -5.58169e-14 0)
(-1.28704e-13 7.14804e-14 0)
(-1.10241e-13 8.58626e-14 0)
(-9.26002e-15 9.76148e-14 0)
(7.9188e-14 6.90701e-14 0)
(2.24578e-14 -8.72608e-14 0)
(7.00748e-14 -1.8455e-13 0)
(1.07072e-13 -1.11952e-13 0)
(1.66534e-13 -4.5846e-14 0)
(2.00348e-13 -1.47683e-13 0)
(1.63879e-13 -2.58537e-13 0)
(1.94495e-13 -2.9077e-13 0)
(2.16365e-13 -1.79808e-13 0)
(2.04149e-13 -2.06369e-13 0)
(1.11778e-13 -1.45391e-13 0)
(8.69507e-14 -6.67104e-14 0)
(1.85894e-14 -1.41723e-13 0)
(-7.82488e-14 -8.16688e-14 0)
(-1.58523e-13 -1.55004e-13 0)
(-2.26072e-13 -8.32556e-14 0)
(-2.46419e-13 7.60379e-14 0)
(-1.62824e-13 5.91225e-14 0)
(-7.51316e-14 -4.25973e-14 0)
(-1.5194e-13 -6.09078e-15 0)
(-1.98587e-13 9.26016e-15 0)
(-1.50251e-13 -1.14899e-14 0)
(-5.34958e-14 -3.06359e-14 0)
(3.82899e-15 -1.24461e-13 0)
(1.00066e-13 -9.16826e-14 0)
(1.29488e-13 -1.85606e-13 0)
(-1.40433e-14 -2.33907e-13 0)
(-1.46738e-13 -1.63008e-13 0)
(-1.22916e-13 -1.14307e-13 0)
(-1.06571e-14 -9.6354e-14 0)
(1.44608e-14 -1.64623e-13 0)
(-3.07836e-14 -2.53359e-13 0)
(-6.55948e-14 -1.61099e-13 0)
(-1.11777e-13 -1.34299e-13 0)
(-9.30255e-14 -1.16871e-13 0)
(-1.46339e-13 -6.2593e-14 0)
(-1.09011e-13 3.54215e-14 0)
(-4.42865e-14 2.54792e-14 0)
(-1.0767e-13 -1.49063e-14 0)
(-1.48126e-13 -9.26222e-16 0)
(-7.53022e-14 -1.9947e-14 0)
(-1.33951e-14 1.9236e-14 0)
(3.14717e-14 -3.51655e-14 0)
(-2.14234e-14 -9.9e-14 0)
(-1.27946e-13 -8.1339e-14 0)
(-1.57771e-13 -1.57684e-13 0)
(-1.54898e-13 -1.17807e-13 0)
(-1.05009e-13 -1.45336e-13 0)
(-3.76176e-14 -1.74702e-13 0)
(1.41101e-14 -2.16586e-13 0)
(-4.98681e-14 -1.83106e-13 0)
(-1.13276e-13 -1.74281e-13 0)
(-1.6383e-13 -1.00368e-13 0)
(-9.38754e-14 -2.48348e-14 0)
(3.07344e-14 6.12601e-14 0)
(1.3051e-13 3.45895e-14 0)
(2.90818e-13 -8.65436e-14 0)
(3.31274e-13 -1.07554e-13 0)
(1.87541e-13 -1.32711e-13 0)
(9.75099e-14 -1.08836e-13 0)
(-2.19712e-14 -1.44656e-13 0)
(-7.89586e-14 -3.52726e-14 0)
(-1.16952e-13 -2.95706e-14 0)
(-6.43108e-14 3.41889e-15 0)
(-1.79548e-14 -2.88382e-14 0)
(-1.55502e-14 -4.03917e-14 0)
(-5.58271e-14 3.66063e-14 0)
(-7.14237e-14 1.44129e-13 0)
(2.19814e-14 1.58334e-13 0)
(7.57963e-14 1.31493e-13 0)
(-5.37318e-14 1.06559e-13 0)
(-7.4514e-14 5.92771e-14 0)
(-1.09484e-13 -4.85997e-14 0)
(-1.27738e-13 -1.62885e-14 0)
(-1.47915e-13 -1.51233e-14 0)
(-2.25707e-13 -4.16629e-14 0)
(-2.16324e-13 -1.89324e-14 0)
(-1.31806e-13 -6.14059e-14 0)
(-1.46317e-14 -2.2048e-14 0)
(1.0565e-14 -5.7336e-14 0)
(-1.25785e-13 4.04785e-14 0)
(-1.81269e-13 2.38184e-14 0)
(-3.8919e-14 6.01222e-14 0)
(1.08886e-13 -1.01093e-13 0)
(9.54022e-14 -4.61887e-14 0)
(8.48276e-14 4.81225e-15 0)
(3.93669e-14 -2.07182e-14 0)
(-1.56976e-13 1.48319e-15 0)
(-1.19666e-13 1.08668e-13 0)
(-5.78725e-14 9.66642e-14 0)
(-7.94882e-15 2.78365e-14 0)
(1.32478e-13 -1.20663e-14 0)
(1.35788e-13 -8.3905e-14 0)
(9.48507e-14 -9.4226e-14 0)
(4.62493e-14 1.75954e-14 0)
(-1.81634e-14 -4.84973e-14 0)
(-1.61796e-14 -8.84415e-14 0)
(6.37477e-14 -3.33915e-14 0)
(1.28935e-13 -5.9585e-14 0)
(8.46233e-14 -1.34211e-13 0)
(2.31158e-15 -1.24273e-13 0)
(-4.69034e-14 -2.66707e-14 0)
(-8.90774e-14 -9.06224e-14 0)
(-5.38926e-14 5.3166e-15 0)
(-4.68463e-14 -7.4012e-15 0)
(-9.97572e-14 -7.70644e-14 0)
(-2.00466e-13 -2.87433e-14 0)
(-2.61208e-13 8.00974e-14 0)
(-1.94956e-13 -1.36441e-14 0)
(-6.38616e-14 2.72035e-14 0)
(-2.28934e-14 1.01721e-13 0)
(-6.12404e-14 -2.52485e-14 0)
(-7.60055e-14 -4.93695e-14 0)
(1.23802e-15 6.57831e-14 0)
(5.9166e-16 7.99972e-14 0)
(-2.54218e-14 1.23685e-13 0)
(3.60306e-14 4.08539e-14 0)
(3.92263e-14 1.42482e-13 0)
(1.23309e-13 1.63669e-13 0)
(8.80215e-14 8.05354e-14 0)
(-2.14972e-14 1.08937e-13 0)
(-1.33706e-13 7.29806e-14 0)
(-2.78704e-14 5.54571e-14 0)
(6.98668e-14 -7.40201e-15 0)
(6.37041e-14 -5.11001e-14 0)
(4.82308e-14 2.74159e-14 0)
(-3.33515e-15 8.59435e-14 0)
(1.23236e-13 2.83536e-14 0)
(2.04729e-13 9.86719e-14 0)
(1.68573e-13 1.5173e-13 0)
(1.07098e-13 1.29704e-13 0)
(-4.2304e-14 2.09524e-13 0)
(-1.1761e-13 1.93505e-13 0)
(-6.36098e-14 7.65235e-14 0)
(5.67644e-14 8.41151e-14 0)
(1.08834e-13 -9.76117e-15 0)
(-4.0442e-14 -1.83226e-13 0)
(-1.02728e-13 -1.81762e-13 0)
(-5.09332e-14 -6.96546e-15 0)
(4.58315e-14 1.43065e-13 0)
(1.07558e-13 1.55334e-13 0)
(6.80503e-14 6.2497e-14 0)
(5.61582e-14 9.48111e-14 0)
(1.2914e-13 5.47779e-14 0)
(-2.3144e-14 -3.46363e-15 0)
(-1.07693e-13 1.90865e-14 0)
(-1.40526e-13 2.8171e-14 0)
(-7.9922e-14 5.86036e-14 0)
(3.12734e-14 -3.8146e-14 0)
(9.07282e-14 -1.08888e-13 0)
(-7.21552e-15 -1.31694e-13 0)
(-1.39977e-14 -2.9708e-13 0)
(3.58355e-14 -2.68856e-13 0)
(-4.62013e-14 -2.42538e-13 0)
(-9.57116e-14 -3.00081e-13 0)
(-9.00677e-14 -2.5937e-13 0)
(-1.2202e-13 -3.01703e-13 0)
(-7.84158e-14 -3.58461e-13 0)
(-1.28826e-13 -3.42387e-13 0)
(-1.80376e-13 -2.92208e-13 0)
(-1.05838e-13 -2.33437e-13 0)
(-1.56007e-13 -1.41217e-13 0)
(-1.34568e-13 -1.88338e-13 0)
(-3.61216e-14 -1.80192e-13 0)
(-6.77175e-14 -9.84267e-14 0)
(-7.23876e-14 -8.60247e-14 0)
(3.7338e-14 -4.12924e-14 0)
(-3.17554e-14 -6.62298e-14 0)
(-8.92005e-14 -7.98084e-14 0)
(1.06212e-13 -7.09446e-14 0)
(1.26717e-13 -1.69484e-13 0)
(1.36654e-13 -2.00414e-13 0)
(1.07042e-13 -2.60639e-13 0)
(1.2509e-13 -2.21989e-13 0)
(2.54567e-13 -2.39173e-13 0)
(2.65847e-13 -2.09745e-13 0)
(1.92517e-13 -1.53468e-13 0)
(1.22512e-13 -1.64937e-13 0)
(3.76784e-14 -2.61682e-13 0)
(-4.29044e-15 -2.81224e-13 0)
(-9.01999e-14 -2.59929e-13 0)
(-1.42803e-13 -3.09267e-13 0)
(-1.3375e-13 -3.25627e-13 0)
(-1.59068e-13 -2.25496e-13 0)
(-1.66098e-13 -2.05363e-13 0)
(-1.37143e-13 -1.60016e-13 0)
(-1.33683e-13 -1.72528e-13 0)
(-1.86286e-13 -5.43375e-14 0)
(-1.91183e-13 -1.0552e-13 0)
(-1.41969e-13 -1.5121e-13 0)
(1.9972e-14 -2.44107e-13 0)
(1.6739e-13 -2.05653e-13 0)
(8.51864e-14 -3.08434e-13 0)
(2.49031e-15 -3.95962e-13 0)
(-1.19001e-13 -3.47691e-13 0)
(-1.61705e-13 -2.02994e-13 0)
(-9.04524e-14 -1.66685e-13 0)
(-5.38238e-14 -2.69014e-13 0)
(1.15559e-14 -2.83165e-13 0)
(1.52196e-14 -2.75668e-13 0)
(-6.46276e-14 -3.12719e-13 0)
(-7.61356e-14 -2.5636e-13 0)
(-1.35819e-13 -2.66232e-13 0)
(-1.2515e-13 -1.25945e-13 0)
(-3.71325e-14 -8.93551e-14 0)
(-1.27268e-13 -1.16628e-13 0)
(-1.36991e-13 -7.00625e-14 0)
(-3.83805e-14 -4.66011e-14 0)
(-1.41898e-14 -5.60454e-14 0)
(2.73235e-14 -4.78413e-14 0)
(-6.16406e-14 -1.45549e-13 0)
(-1.38042e-13 -2.15915e-13 0)
(-1.9752e-13 -1.74251e-13 0)
(-2.38961e-13 -1.80425e-13 0)
(-1.7726e-13 -2.57054e-13 0)
(-2.87987e-14 -2.54224e-13 0)
(5.77609e-14 -2.6369e-13 0)
(-2.6152e-14 -2.9109e-13 0)
(-1.07149e-13 -2.44405e-13 0)
(-8.37818e-14 -2.53557e-13 0)
(-2.75271e-14 -1.4418e-13 0)
(6.66548e-14 -9.7428e-14 0)
(1.02717e-13 -9.7386e-14 0)
(2.17516e-13 -2.11204e-13 0)
(2.94928e-13 -3.22516e-13 0)
(2.0702e-13 -2.83199e-13 0)
(9.99532e-14 -3.4274e-13 0)
(4.91835e-15 -3.88245e-13 0)
(-6.61559e-14 -2.43987e-13 0)
(-1.37087e-13 -1.30716e-13 0)
(-2.99077e-14 -1.58812e-13 0)
(4.47774e-15 -8.6974e-14 0)
(-4.30461e-14 -1.25212e-13 0)
(5.09026e-15 -1.27045e-13 0)
(5.62318e-14 -7.08773e-14 0)
(2.12973e-14 -3.8657e-14 0)
(1.28667e-14 -1.01716e-13 0)
(-1.01835e-13 -1.05261e-13 0)
(-8.93063e-14 -4.20866e-14 0)
(-1.42605e-13 -8.81318e-14 0)
(-1.3621e-13 -1.60281e-13 0)
(-1.17069e-13 -1.24675e-13 0)
(-1.87673e-13 -1.34973e-13 0)
(-2.42712e-13 -1.27695e-13 0)
(-1.38388e-13 -1.99379e-13 0)
(-2.47265e-14 -1.97066e-13 0)
(-3.71671e-14 -2.19556e-13 0)
(-1.18053e-13 -1.7029e-13 0)
(-9.47302e-14 -6.84992e-14 0)
(-8.56741e-14 -1.65202e-14 0)
(1.78511e-14 -9.65568e-14 0)
(1.31264e-13 -1.5843e-13 0)
(1.16776e-13 -2.22533e-13 0)
(4.73685e-14 -1.8873e-13 0)
(-1.13893e-13 -2.36491e-13 0)
(-6.9507e-14 -8.40678e-14 0)
(-5.30833e-14 7.10801e-15 0)
(-5.54902e-14 3.63148e-14 0)
(5.88532e-14 -4.23483e-14 0)
(1.13912e-13 -4.5085e-14 0)
(9.49222e-14 -1.27193e-13 0)
(6.48373e-14 -2.33198e-13 0)
(4.4446e-14 -1.28079e-13 0)
(-1.37279e-14 -7.06477e-14 0)
(2.57424e-14 -1.49442e-13 0)
(2.99824e-14 -1.46546e-13 0)
(6.34328e-14 -1.61366e-13 0)
(6.74694e-14 -2.52456e-13 0)
(-5.89433e-14 -2.08786e-13 0)
(-4.24134e-14 -2.51491e-13 0)
(-2.12967e-15 -1.49199e-13 0)
(-6.44215e-14 -1.82509e-13 0)
(-1.15851e-13 -1.65299e-13 0)
(-1.58989e-13 -2.45662e-13 0)
(-1.95597e-13 -1.05665e-13 0)
(-1.71234e-13 -1.94412e-14 0)
(-4.97621e-14 -2.77313e-14 0)
(-6.38713e-14 -7.16259e-14 0)
(-8.23125e-14 -3.71011e-14 0)
(-4.09047e-14 -8.55666e-15 0)
(1.22877e-14 -8.34977e-14 0)
(2.3516e-14 -4.403e-14 0)
(-4.18012e-14 -5.52182e-15 0)
(3.3787e-14 -6.49727e-14 0)
(1.18215e-13 -5.83134e-14 0)
(1.06525e-13 2.0989e-14 0)
(2.35307e-14 -6.0993e-14 0)
(-1.89344e-14 -9.48253e-14 0)
(-7.88704e-14 -5.82826e-14 0)
(-7.62377e-14 -5.53496e-14 0)
(1.95918e-14 -1.08544e-13 0)
(5.82625e-14 -4.62405e-15 0)
(8.13979e-14 -5.3917e-14 0)
(5.08939e-14 -5.07934e-15 0)
(1.30542e-13 1.09844e-14 0)
(2.60561e-13 -4.81904e-14 0)
(2.23246e-13 1.38575e-14 0)
(1.4433e-13 2.46534e-14 0)
(-4.41368e-14 1.95916e-14 0)
(-1.60973e-13 1.9509e-15 0)
(-1.19513e-13 5.46466e-15 0)
(4.19936e-14 2.42141e-14 0)
(-9.6305e-15 -8.20689e-14 0)
(-8.63974e-14 -6.69418e-14 0)
(1.30818e-14 -1.1681e-13 0)
(1.20335e-13 -5.8294e-14 0)
(8.14919e-14 3.39799e-14 0)
(5.98751e-14 -1.11409e-14 0)
(5.01328e-14 -1.12023e-13 0)
(7.91142e-14 -6.90852e-14 0)
(3.74891e-14 -8.82828e-14 0)
(-4.9707e-14 -1.2674e-13 0)
(-7.5801e-14 -1.02598e-13 0)
(-8.80055e-14 -9.42663e-14 0)
(-9.38863e-14 -5.2241e-14 0)
(-4.53693e-14 -6.2337e-14 0)
(-1.14468e-14 -6.06936e-14 0)
(3.19504e-14 -1.91692e-13 0)
(5.15166e-14 -5.82548e-14 0)
(6.86944e-14 -4.63195e-14 0)
(-8.10293e-14 -4.80349e-14 0)
(-9.62973e-14 -9.28683e-14 0)
(-5.43169e-14 -2.00491e-13 0)
(-1.27808e-13 -1.33495e-13 0)
(-1.53297e-13 -1.70825e-13 0)
(-1.38299e-13 -1.95602e-13 0)
(-1.1441e-13 -1.01222e-13 0)
(-1.26366e-13 -1.06006e-13 0)
(-1.88851e-13 -1.42502e-13 0)
(-1.23176e-13 -1.37857e-13 0)
(1.71876e-14 -1.94797e-13 0)
(2.05028e-14 -1.51133e-13 0)
(-1.81893e-14 -5.55778e-14 0)
(2.27986e-14 -1.61592e-14 0)
(-3.28257e-15 -4.57616e-14 0)
(-2.5268e-15 -1.26482e-14 0)
(-5.07494e-15 -1.80792e-14 0)
(4.28147e-14 -9.8283e-14 0)
(1.12412e-13 -6.56719e-14 0)
(1.49272e-13 -1.29658e-13 0)
(1.28605e-13 -8.0043e-14 0)
(1.75535e-13 -1.80312e-13 0)
(3.19531e-13 -2.40802e-13 0)
(1.79311e-13 -2.43674e-13 0)
(4.34842e-14 -3.2735e-13 0)
(1.31848e-14 -3.82686e-13 0)
(4.94086e-14 -3.31799e-13 0)
(-7.43568e-14 -3.42745e-13 0)
(-1.78877e-13 -2.46725e-13 0)
(-1.21456e-13 -2.41748e-13 0)
(-1.45612e-13 -2.25083e-13 0)
(-9.84938e-14 -2.49606e-13 0)
(-6.87261e-14 -2.0451e-13 0)
(-1.09543e-13 -2.50775e-13 0)
(-1.01349e-13 -1.93169e-13 0)
(-2.41226e-13 -1.28645e-13 0)
(-2.11943e-13 -1.79789e-13 0)
(-1.27188e-14 -2.01473e-13 0)
(1.00128e-13 -3.16673e-13 0)
(1.37041e-14 -4.12957e-13 0)
(-5.4499e-14 -4.65447e-13 0)
(-3.06478e-14 -4.82705e-13 0)
(2.90159e-15 -3.76111e-13 0)
(-9.50885e-14 -2.54574e-13 0)
(-7.61559e-14 -2.6949e-13 0)
(-2.51202e-14 -2.23305e-13 0)
(-4.90532e-14 -3.12674e-13 0)
(-5.68907e-14 -3.18861e-13 0)
(-4.15525e-14 -3.21598e-13 0)
(-3.73068e-14 -2.79422e-13 0)
(5.98484e-14 -1.31423e-13 0)
(-7.77424e-14 -5.71926e-14 0)
(-1.09638e-13 -6.21226e-14 0)
(-1.20536e-13 1.98927e-14 0)
(-7.86392e-14 -5.82409e-14 0)
(8.55587e-17 -9.64264e-14 0)
(-4.40731e-14 -1.65294e-13 0)
(-1.90859e-13 -2.61989e-13 0)
(-1.51137e-13 -3.61267e-13 0)
(-1.23626e-13 -2.81863e-13 0)
(-2.05208e-13 -2.14368e-13 0)
(-1.56839e-13 -1.64638e-13 0)
(-3.54033e-14 -1.13884e-13 0)
(-2.03841e-14 -2.3079e-13 0)
(-8.64331e-14 -3.20986e-13 0)
(-1.26838e-13 -3.68047e-13 0)
(-3.48088e-14 -3.44391e-13 0)
(8.79833e-14 -3.28985e-13 0)
(1.19504e-13 -2.35806e-13 0)
(4.17242e-14 -2.13585e-13 0)
(1.12061e-13 -2.03829e-13 0)
(2.39337e-13 -3.15211e-13 0)
(1.43776e-13 -4.13483e-13 0)
(-2.32927e-14 -4.90581e-13 0)
(4.39361e-14 -4.41166e-13 0)
(1.14572e-13 -3.74074e-13 0)
(-9.9891e-15 -2.13452e-13 0)
(3.18773e-14 -1.52429e-13 0)
(-1.46523e-14 -1.21182e-13 0)
(-4.55513e-14 -1.49952e-13 0)
(-1.46338e-14 -1.28641e-13 0)
(4.16528e-14 -1.72725e-13 0)
(-2.17647e-14 -2.62552e-13 0)
(-1.4836e-14 -2.35803e-13 0)
(-7.40564e-15 -2.22511e-13 0)
(-6.80052e-14 -9.57156e-14 0)
(-2.06556e-13 -1.34394e-13 0)
(-1.73095e-13 -2.04828e-13 0)
(-1.12769e-13 -2.64502e-13 0)
(-2.49072e-13 -3.29585e-13 0)
(-2.88859e-13 -2.96315e-13 0)
(-1.98878e-13 -2.67223e-13 0)
(-5.06544e-14 -2.75323e-13 0)
(4.06431e-14 -3.39248e-13 0)
(1.02056e-14 -2.60081e-13 0)
(-4.511e-14 -1.55293e-13 0)
(-9.87042e-14 -1.68244e-13 0)
(9.6625e-15 -1.57877e-13 0)
(5.21546e-14 -2.14722e-13 0)
(6.38727e-14 -2.00726e-13 0)
(3.38873e-14 -2.62126e-13 0)
(-2.2425e-14 -2.99467e-13 0)
(6.27004e-14 -2.35582e-13 0)
(1.24915e-14 -1.44637e-13 0)
(-6.49424e-14 -1.64523e-13 0)
(3.41224e-14 -1.33123e-13 0)
(6.56017e-14 -2.01345e-13 0)
(-1.4166e-14 -2.99416e-13 0)
(5.53902e-14 -3.37618e-13 0)
(1.02436e-13 -3.29657e-13 0)
(-4.20548e-14 -2.74928e-13 0)
(5.10815e-14 -2.42916e-13 0)
(9.08371e-14 -1.56789e-13 0)
(-3.82385e-14 -1.92605e-13 0)
(-2.18337e-14 -3.12024e-13 0)
(-1.87005e-14 -3.57893e-13 0)
(1.18282e-14 -3.07785e-13 0)
(5.66403e-14 -3.05977e-13 0)
(-3.50021e-14 -3.29198e-13 0)
(-1.85528e-13 -2.87581e-13 0)
(-1.45191e-13 -2.26429e-13 0)
(-5.35714e-14 -2.46362e-13 0)
(-1.528e-13 -1.95182e-13 0)
(-1.17056e-13 -1.9026e-13 0)
(-8.42525e-14 -2.31752e-13 0)
(-4.16198e-14 -1.74642e-13 0)
(-7.97014e-14 -1.29413e-13 0)
(2.88104e-14 -1.23534e-13 0)
(9.90808e-14 -1.46376e-13 0)
(-1.7784e-14 -1.46558e-13 0)
(-1.76012e-14 -1.38555e-13 0)
(1.25205e-13 -2.37357e-13 0)
(9.35881e-14 -3.22237e-13 0)
(-2.45752e-14 -3.28371e-13 0)
(-2.92132e-14 -3.43312e-13 0)
(-2.60219e-14 -2.96641e-13 0)
(-8.63288e-14 -1.96235e-13 0)
(8.67559e-14 -1.19334e-13 0)
(1.1882e-13 -1.13067e-13 0)
(5.72635e-14 -1.53481e-13 0)
(4.26332e-14 -1.8713e-13 0)
(1.03559e-13 -1.48042e-13 0)
(2.3202e-13 -1.51135e-13 0)
(1.99561e-13 -1.62705e-13 0)
(7.41902e-14 -1.61946e-13 0)
(-3.14254e-14 -1.33917e-13 0)
(-1.11676e-13 -1.58821e-13 0)
(-7.99976e-14 -5.84556e-14 0)
(-3.87405e-14 -1.07494e-13 0)
(-1.06493e-14 -8.92267e-14 0)
(-6.00037e-14 -4.28648e-14 0)
(-5.47616e-14 -1.12732e-13 0)
(1.28929e-13 -1.75424e-13 0)
(1.0796e-13 -1.69584e-13 0)
(-2.36188e-14 -2.16118e-13 0)
(5.84338e-14 -2.04444e-13 0)
(1.02958e-13 -2.79889e-13 0)
(4.56497e-14 -3.13339e-13 0)
(-4.0127e-14 -3.30745e-13 0)
(-1.08956e-13 -3.25412e-13 0)
(-1.18045e-13 -3.28094e-13 0)
(-5.26986e-14 -2.41806e-13 0)
(3.22015e-14 -1.23025e-13 0)
(-2.18475e-14 -5.71685e-14 0)
(-2.77047e-14 -1.33676e-13 0)
(5.74862e-14 -1.42088e-13 0)
(2.76275e-14 -1.78162e-13 0)
(-7.77487e-14 -1.39627e-13 0)
(-1.91572e-13 -1.26543e-13 0)
(-1.32737e-13 -2.22703e-13 0)
(-5.53523e-14 -2.83485e-13 0)
(-8.16546e-14 -2.57997e-13 0)
(-6.89376e-14 -1.91488e-13 0)
(-1.04648e-13 -1.61552e-13 0)
(-1.72844e-13 -4.63775e-14 0)
(-2.25949e-13 -4.64266e-15 0)
(-1.40329e-13 -5.67546e-14 0)
(-5.12053e-15 -2.11407e-14 0)
(1.04765e-13 1.02784e-14 0)
(8.50274e-14 3.85248e-14 0)
(3.18687e-14 1.50631e-14 0)
(-7.54907e-14 -2.94046e-14 0)
(-5.59282e-14 2.10694e-15 0)
(-1.18128e-14 4.73971e-14 0)
(9.60852e-14 1.9181e-14 0)
(1.40735e-13 -3.74105e-14 0)
(4.36553e-14 -3.46519e-14 0)
(8.9722e-14 -1.29633e-13 0)
(1.15374e-13 -1.21187e-13 0)
(1.82773e-13 -2.52078e-13 0)
(1.00979e-13 -3.60319e-13 0)
(2.72857e-14 -3.40652e-13 0)
(4.32481e-14 -2.59442e-13 0)
(2.24592e-14 -2.91549e-13 0)
(1.11292e-14 -3.51783e-13 0)
(-5.67831e-14 -3.08227e-13 0)
(-1.0312e-13 -2.67979e-13 0)
(-1.37712e-13 -2.74088e-13 0)
(-1.40008e-13 -2.21171e-13 0)
(-1.14956e-13 -2.41298e-13 0)
(-1.15105e-13 -2.29936e-13 0)
(-7.79764e-14 -2.26692e-13 0)
(-1.45847e-13 -2.38296e-13 0)
(-2.03127e-13 -1.995e-13 0)
(-9.2082e-14 -2.04175e-13 0)
(-4.20757e-14 -3.18353e-13 0)
(-4.28374e-14 -3.54803e-13 0)
(-8.4769e-14 -3.03182e-13 0)
(-2.84264e-14 -3.47518e-13 0)
(4.17407e-14 -3.59214e-13 0)
(-2.4733e-14 -3.50679e-13 0)
(-2.50758e-14 -2.66129e-13 0)
(-4.42704e-14 -3.12981e-13 0)
(-9.9552e-14 -3.22074e-13 0)
(-5.72736e-14 -2.16359e-13 0)
(-3.83061e-14 -2.08385e-13 0)
(5.19183e-14 -1.29054e-13 0)
(1.53229e-13 -6.93093e-14 0)
(1.01616e-14 -5.06494e-14 0)
(-9.27481e-14 -5.72259e-14 0)
(-1.57022e-13 -8.33109e-14 0)
(-1.5842e-13 -1.01643e-13 0)
(-8.03468e-14 -1.55138e-13 0)
(-1.24125e-13 -2.43071e-13 0)
(-1.98947e-13 -2.36987e-13 0)
(-1.47381e-13 -1.8877e-13 0)
(-8.71555e-14 -2.37043e-13 0)
(-1.12121e-13 -2.03663e-13 0)
(-9.22249e-14 -1.79643e-13 0)
(-1.10563e-13 -1.30058e-13 0)
(-1.36864e-13 -2.38738e-13 0)
(-1.5899e-13 -2.59443e-13 0)
(-1.19898e-13 -2.81106e-13 0)
(-5.48181e-14 -2.5567e-13 0)
(9.61014e-14 -3.2802e-13 0)
(1.77176e-13 -2.95072e-13 0)
(1.0286e-13 -2.2848e-13 0)
(8.60861e-14 -1.29096e-13 0)
(5.93997e-14 -1.90576e-13 0)
(1.98921e-14 -3.77029e-13 0)
(4.56151e-14 -4.00432e-13 0)
(6.76314e-14 -3.11926e-13 0)
(1.63515e-13 -3.56457e-13 0)
(1.22072e-13 -2.5708e-13 0)
(5.7228e-14 -2.53591e-13 0)
(8.93661e-15 -1.96579e-13 0)
(-4.04493e-14 -2.13377e-13 0)
(2.80925e-15 -1.80237e-13 0)
(-4.70094e-14 -2.34512e-13 0)
(-4.93868e-14 -1.94147e-13 0)
(-1.61903e-16 -1.65165e-13 0)
(5.47993e-14 -2.19973e-13 0)
(-1.37539e-14 -1.55395e-13 0)
(-2.11913e-13 -2.06577e-13 0)
(-2.38383e-13 -2.60322e-13 0)
(-2.18757e-13 -3.81126e-13 0)
(-2.68248e-13 -4.12488e-13 0)
(-1.79314e-13 -3.1489e-13 0)
(-1.21509e-13 -1.51626e-13 0)
(-5.35168e-14 -1.28841e-13 0)
(-3.59543e-14 -2.1711e-13 0)
(5.05514e-14 -2.3139e-13 0)
(-1.50564e-14 -1.60138e-13 0)
(-7.94432e-14 -1.94628e-13 0)
(3.67377e-15 -1.02159e-13 0)
(7.92307e-14 -1.70586e-13 0)
(9.49942e-14 -1.40958e-13 0)
(-1.90435e-14 -1.73081e-13 0)
(-6.46357e-14 -1.22423e-13 0)
(1.01232e-13 -1.60751e-13 0)
(3.95918e-14 -9.07094e-14 0)
(-6.38829e-14 -1.08826e-13 0)
(4.5733e-14 -1.24352e-13 0)
(-1.60695e-14 -1.51779e-13 0)
(-7.10927e-14 -2.12822e-13 0)
(1.00602e-14 -1.91946e-13 0)
(8.01246e-14 -2.53811e-13 0)
(8.66652e-14 -2.1441e-13 0)
(1.7171e-13 -1.42385e-13 0)
(5.59163e-14 -1.70162e-13 0)
(-1.22827e-13 -2.47295e-13 0)
(-8.65321e-14 -2.1879e-13 0)
(-4.37347e-14 -2.79284e-13 0)
(-1.5831e-15 -2.00911e-13 0)
(3.5441e-14 -2.35438e-13 0)
(-2.85882e-14 -2.42561e-13 0)
(-6.99951e-14 -2.65144e-13 0)
(-1.35128e-13 -1.315e-13 0)
(-1.10326e-13 -2.06574e-13 0)
(-1.25237e-13 -1.57195e-13 0)
(-9.20955e-14 -2.2782e-13 0)
(-4.7306e-14 -1.76446e-13 0)
(-5.69897e-15 -1.49924e-13 0)
(-2.57588e-14 -7.145e-14 0)
(2.42984e-14 -4.3769e-14 0)
(5.05161e-14 -7.0477e-14 0)
(-9.79489e-15 -8.9041e-14 0)
(-2.80752e-14 -7.0691e-14 0)
(-2.13028e-14 -1.6131e-13 0)
(2.96815e-14 -3.31408e-13 0)
(4.42802e-15 -3.4273e-13 0)
(4.19907e-14 -3.13909e-13 0)
(1.17226e-14 -2.3642e-13 0)
(2.86651e-14 -1.78773e-13 0)
(9.80011e-14 -1.03485e-13 0)
(3.96261e-14 -2.4139e-13 0)
(-4.19187e-15 -2.76375e-13 0)
(5.62311e-14 -2.65219e-13 0)
(1.70148e-13 -1.88918e-13 0)
(2.59665e-13 -1.60682e-13 0)
(1.92287e-13 -2.02837e-13 0)
(1.32402e-13 -2.09152e-13 0)
(-4.81139e-14 -2.34879e-13 0)
(-9.68985e-14 -1.9819e-13 0)
(-8.04836e-14 -1.47449e-13 0)
(-9.09396e-15 -1.77022e-13 0)
(1.49936e-14 -1.4175e-13 0)
(-1.0433e-13 -1.82625e-13 0)
(-5.44044e-14 -1.2517e-13 0)
(1.08712e-13 -1.01449e-13 0)
(5.71408e-14 -1.86863e-13 0)
(-6.42909e-15 -1.78698e-13 0)
(1.27658e-14 -1.90014e-13 0)
(1.99461e-14 -2.77851e-13 0)
(-6.78766e-15 -3.5754e-13 0)
(-7.89169e-14 -3.84558e-13 0)
(-7.09878e-14 -3.37924e-13 0)
(-2.81455e-14 -2.61327e-13 0)
(5.86431e-14 -1.78747e-13 0)
(1.37856e-13 -5.34838e-14 0)
(-4.4041e-14 -8.48896e-14 0)
(-1.14998e-13 -1.44403e-13 0)
(1.11473e-13 -3.75086e-13 0)
(7.41727e-14 -4.31605e-13 0)
(1.59259e-14 -2.91475e-13 0)
(-1.79963e-13 -2.49995e-13 0)
(-2.25326e-13 -1.80971e-13 0)
(-1.06815e-13 -3.18632e-13 0)
(-1.25062e-14 -3.28184e-13 0)
(-4.00282e-14 -3.81945e-13 0)
(-2.68725e-14 -3.18407e-13 0)
(-2.26794e-14 -1.75589e-13 0)
(-1.52504e-13 -1.32825e-15 0)
(-1.43565e-13 -9.3845e-15 0)
(6.08772e-14 6.14787e-14 0)
(3.55823e-14 -3.86619e-14 0)
(-3.05533e-14 -1.45017e-13 0)
(-4.32777e-14 -1.77401e-13 0)
(-1.55555e-14 -2.15051e-13 0)
(5.00931e-14 -1.65185e-13 0)
(2.83016e-14 -5.2781e-14 0)
(-7.61313e-15 -7.54854e-14 0)
(6.07526e-14 -2.14454e-13 0)
(3.24402e-14 -2.20884e-13 0)
(6.97028e-14 -2.58674e-13 0)
(6.98663e-14 -2.4791e-13 0)
(7.60129e-14 -2.92338e-13 0)
(1.16689e-13 -3.216e-13 0)
(1.15293e-13 -2.5981e-13 0)
(1.83103e-14 -2.09031e-13 0)
(-4.86225e-14 -3.11212e-13 0)
(-1.09458e-14 -2.39873e-13 0)
(-6.67914e-14 -2.67808e-13 0)
(-8.25561e-14 -2.9974e-13 0)
(-5.60613e-14 -2.77968e-13 0)
(-7.52794e-14 -2.37234e-13 0)
(-9.24234e-14 -2.03307e-13 0)
(-8.22881e-14 -1.60502e-13 0)
(-1.32982e-13 -1.21766e-13 0)
(-2.17628e-13 -2.19796e-13 0)
(-1.64593e-13 -2.41131e-13 0)
(-1.28579e-13 -1.44345e-13 0)
(-6.55957e-14 -1.73024e-13 0)
(1.0898e-14 -1.35227e-13 0)
(-7.36037e-14 -1.40258e-13 0)
(-6.96089e-14 -2.06366e-13 0)
(3.42865e-14 -2.08173e-13 0)
(-6.61173e-15 -2.14258e-13 0)
(-7.44072e-14 -1.68128e-13 0)
(-9.65264e-14 -2.68275e-13 0)
(-1.42118e-15 -2.13953e-13 0)
(5.8014e-14 -1.16844e-13 0)
(3.48482e-14 -6.55582e-14 0)
(1.16851e-13 -2.64893e-14 0)
(1.50331e-13 -1.95207e-14 0)
(-4.18356e-14 -5.96921e-14 0)
(-1.62742e-13 -3.89905e-14 0)
(-1.42822e-13 -8.55373e-14 0)
(-1.38946e-13 -5.41747e-14 0)
(-1.37361e-13 -1.11935e-13 0)
(-1.03497e-13 -7.94774e-14 0)
(-1.38628e-13 -5.02402e-14 0)
(-1.31384e-13 -7.92029e-15 0)
(-1.60411e-13 -9.10764e-14 0)
(-1.74647e-13 -2.06759e-13 0)
(-8.92492e-14 -2.32667e-13 0)
(-9.32835e-14 -2.42451e-13 0)
(-1.3635e-13 -1.7049e-13 0)
(-1.12777e-13 -9.54283e-14 0)
(-7.84944e-14 -1.16955e-13 0)
(-9.08518e-14 -1.2397e-13 0)
(3.24955e-14 -1.79871e-13 0)
(1.60463e-13 -1.87054e-13 0)
(1.91839e-13 -1.62842e-13 0)
(1.1899e-13 -1.5275e-13 0)
(-2.05554e-14 -1.86516e-13 0)
(-6.40481e-14 -2.00448e-13 0)
(6.04782e-14 -1.82951e-13 0)
(5.90013e-14 -1.50506e-13 0)
(1.55888e-13 -1.76951e-13 0)
(1.3158e-13 -2.12478e-13 0)
(4.15115e-14 -2.59225e-13 0)
(2.87265e-14 -2.39803e-13 0)
(-2.47745e-14 -1.86533e-13 0)
(-1.0457e-14 -2.16933e-13 0)
(4.32872e-15 -1.42882e-13 0)
(2.92521e-14 -7.29799e-14 0)
(-2.82895e-14 -3.31221e-14 0)
(1.2689e-14 -9.03299e-14 0)
(-6.684e-14 -1.80115e-13 0)
(-2.50984e-13 -2.12906e-13 0)
(-3.03747e-13 -1.98087e-13 0)
(-2.39355e-13 -2.66047e-13 0)
(-1.57419e-13 -1.89483e-13 0)
(-5.26069e-14 -9.20901e-14 0)
(-6.06756e-14 -2.1217e-14 0)
(-1.15856e-13 -7.06573e-14 0)
(-6.97919e-14 -2.83665e-14 0)
(3.43749e-14 -7.0848e-14 0)
(-9.9915e-15 -8.63869e-14 0)
(-6.70304e-14 -3.87437e-14 0)
(2.0365e-14 9.41406e-15 0)
(4.58252e-15 -1.00797e-15 0)
(3.6838e-14 -4.83309e-14 0)
(3.78935e-14 -4.77347e-14 0)
(8.65016e-15 4.28198e-14 0)
(1.06604e-13 4.06386e-14 0)
(3.9463e-14 -7.03834e-14 0)
(-4.63927e-14 2.14989e-14 0)
(3.63711e-14 -1.10742e-14 0)
(-1.85468e-14 2.65138e-14 0)
(-9.169e-14 9.14465e-14 0)
(-2.59333e-14 8.32748e-14 0)
(7.34194e-14 3.41776e-14 0)
(9.85973e-14 5.43256e-14 0)
(1.23626e-13 3.86561e-15 0)
(2.02966e-15 -1.06717e-13 0)
(-1.04372e-13 -6.50182e-14 0)
(-8.1016e-14 -8.31613e-15 0)
(-3.04089e-14 -1.02809e-13 0)
(5.48738e-14 -1.22379e-13 0)
(6.68921e-15 -8.09798e-14 0)
(-6.29671e-14 -1.26063e-13 0)
(-8.33967e-15 -9.83641e-14 0)
(-8.92299e-14 -8.67035e-14 0)
(-8.77379e-14 -5.74899e-14 0)
(-1.28892e-13 4.51009e-15 0)
(-1.54628e-13 -3.63121e-15 0)
(-1.87572e-14 -2.29981e-14 0)
(4.6796e-14 -4.06151e-15 0)
(2.43882e-14 -8.27016e-15 0)
(2.06208e-14 -6.02042e-14 0)
(5.80951e-14 -5.3687e-15 0)
(-6.08737e-15 5.0619e-14 0)
(-3.60709e-14 8.93802e-14 0)
(-6.64331e-14 4.07269e-14 0)
(-4.23112e-14 -1.49385e-14 0)
(-3.65697e-14 -1.23199e-13 0)
(9.81979e-14 -1.527e-13 0)
(5.61641e-14 -1.51429e-13 0)
(4.3125e-14 -1.8208e-13 0)
(2.31282e-14 -2.13552e-13 0)
(-4.1369e-14 -2.48505e-13 0)
(5.18379e-14 -2.0171e-13 0)
(9.97583e-14 -1.47048e-13 0)
(1.80275e-13 -9.13715e-14 0)
(2.53143e-13 -1.07842e-13 0)
(1.77403e-13 -1.6557e-13 0)
(5.91696e-14 -2.23706e-13 0)
(-2.90355e-14 -2.04391e-13 0)
(-1.42097e-14 -1.6094e-13 0)
(-5.4838e-14 -1.24467e-13 0)
(-3.91296e-14 -1.62128e-13 0)
(-2.57854e-14 -1.09927e-13 0)
(-1.16366e-13 -1.02856e-13 0)
(2.64917e-14 -8.20707e-14 0)
(1.20209e-13 -7.28635e-14 0)
(2.80036e-14 -6.1002e-14 0)
(-3.78905e-14 -7.35367e-14 0)
(-3.71302e-14 -1.69497e-13 0)
(-4.23144e-14 -1.67248e-13 0)
(-4.54913e-14 -7.49156e-14 0)
(-3.07447e-14 -5.31447e-14 0)
(-2.78844e-14 -5.16907e-14 0)
(1.89273e-14 -7.47514e-14 0)
(1.2326e-13 -8.86124e-14 0)
(7.34559e-14 -1.09043e-13 0)
(-1.2835e-13 -1.80443e-13 0)
(-6.66414e-14 -1.35412e-13 0)
(1.71502e-14 -4.54312e-13 0)
(1.13594e-13 -4.21371e-13 0)