/*--------------------------------*- C++ -*----------------------------------*\
  =========                 |
  \\      /  F ield         | OpenFOAM: The Open Source CFD Toolbox
   \\    /   O peration     | Website:  https://openfoam.org
    \\  /    A nd           | Version:  13
     \\/     M anipulation  |
\*---------------------------------------------------------------------------*/
FoamFile
{
    format      ascii;
    class       volVectorField;
    location    "0.0003";
    object      U;
}
// * * * * * * * * * * * * * * * * * * * * * * * * * * * * * * * * * * * * * //

dimensions      [0 1 -1 0 0 0 0];

internalField   nonuniform List<vector> 
33334
(
(4.82847e-16 -1.73485e-13 0)
(5.14454e-14 -7.28853e-14 0)
(1.73557e-13 -1.09858e-13 0)
(8.00814e-14 -6.7653e-14 0)
(1.10658e-13 -3.42645e-14 0)
(1.39964e-13 -9.89764e-14 0)
(1.17139e-14 -1.2629e-13 0)
(2.09706e-14 -1.44458e-13 0)
(9.21969e-14 -1.29757e-13 0)
(5.85965e-14 -1.37009e-13 0)
(1.5744e-14 -1.27071e-13 0)
(1.40536e-15 -1.60511e-13 0)
(-1.4488e-13 -1.40668e-13 0)
(-8.52896e-14 -8.23807e-14 0)
(-6.31757e-14 -1.0049e-13 0)
(-4.96289e-14 -1.31627e-13 0)
(-2.43051e-14 -1.30086e-13 0)
(-3.05847e-14 -1.17197e-13 0)
(-3.28026e-14 -1.89882e-13 0)
(-9.33928e-14 -1.80135e-13 0)
(-2.57465e-14 -2.2391e-13 0)
(3.03415e-14 -2.09379e-13 0)
(3.43077e-14 -2.49536e-13 0)
(1.22708e-13 -2.63893e-13 0)
(1.3455e-13 -2.37397e-13 0)
(3.93848e-14 -1.73454e-13 0)
(1.82226e-14 -1.83418e-13 0)
(4.96021e-14 -9.81954e-14 0)
(2.16697e-14 -8.0406e-14 0)
(5.15304e-14 -1.00545e-13 0)
(7.5262e-15 -1.6309e-13 0)
(-7.10167e-14 -1.83409e-13 0)
(-9.54665e-14 -1.59454e-13 0)
(-2.00384e-13 -1.36828e-13 0)
(-1.48816e-13 -8.22686e-14 0)
(-1.26524e-13 -2.02226e-13 0)
(-1.37271e-13 -2.66833e-14 0)
(2.17326e-14 -2.0758e-14 0)
(2.12436e-14 -7.7684e-14 0)
(-6.20121e-15 -1.63915e-13 0)
(5.40313e-14 -1.66014e-13 0)
(-5.63847e-14 -2.12442e-13 0)
(-8.79311e-14 -1.71155e-13 0)
(-1.13027e-13 -2.2879e-13 0)
(-9.68926e-14 -4.50865e-14 0)
(1.78701e-14 1.03419e-14 0)
(9.00834e-14 -2.48245e-14 0)
(6.001e-14 -9.41385e-14 0)
(5.71971e-14 -6.18471e-14 0)
(-2.41918e-14 -1.22458e-13 0)
(-7.38893e-14 -5.80053e-14 0)
(-5.02596e-14 -1.13795e-13 0)
(-4.86828e-14 -6.42828e-14 0)
(1.89937e-15 -1.02024e-13 0)
(1.05829e-13 -1.26566e-13 0)
(1.43064e-13 -1.53477e-13 0)
(7.14908e-14 -8.23465e-14 0)
(2.33131e-14 1.0522e-17 0)
(-5.24953e-14 -4.56714e-15 0)
(-1.03609e-13 3.8084e-15 0)
(-1.20832e-13 -1.63539e-13 0)
(-2.30969e-13 -8.27009e-14 0)
(-8.47415e-14 -4.33075e-14 0)
(1.99359e-15 -9.4952e-14 0)
(1.01953e-13 -5.39991e-14 0)
(1.44486e-13 -8.81862e-14 0)
(1.05966e-14 -1.41381e-13 0)
(-3.7348e-14 -7.05409e-14 0)
(4.49151e-15 -1.10891e-13 0)
(4.98579e-14 -2.95024e-14 0)
(1.89479e-14 -1.38666e-14 0)
(-1.65407e-14 -1.16678e-13 0)
(-3.0212e-14 -2.11103e-13 0)
(1.7448e-14 -2.24982e-13 0)
(3.71951e-14 -2.22448e-13 0)
(-2.51748e-14 -1.57875e-13 0)
(-1.27052e-13 -2.52452e-13 0)
(-1.84641e-13 -1.92789e-13 0)
(-8.62631e-14 -8.42848e-14 0)
(-3.19243e-14 -8.17803e-14 0)
(-9.21589e-14 -9.34862e-14 0)
(-3.9748e-14 -9.6927e-15 0)
(1.03322e-13 -5.59882e-14 0)
(1.0354e-13 -1.1614e-13 0)
(-3.84587e-14 -1.63679e-13 0)
(1.23499e-14 -2.29084e-13 0)
(4.3524e-14 -1.89175e-13 0)
(1.365e-13 -9.91889e-14 0)
(1.90736e-13 -1.06566e-13 0)
(1.50577e-13 -1.38138e-13 0)
(1.37859e-13 -1.48747e-13 0)
(3.19049e-14 -1.98047e-13 0)
(4.1828e-15 -1.50972e-13 0)
(3.32967e-14 -2.63944e-13 0)
(8.74916e-16 -1.68413e-13 0)
(-4.71801e-14 -2.09269e-13 0)
(-7.00667e-14 -1.23787e-13 0)
(-1.09668e-14 -7.49638e-14 0)
(-1.23322e-14 -9.38053e-14 0)
(-2.23817e-15 -7.8924e-14 0)
(-9.77221e-15 -8.73276e-14 0)
(1.31354e-14 -4.82389e-14 0)
(-5.68958e-14 -2.13807e-14 0)
(-1.25501e-13 -4.06252e-14 0)
(-5.99193e-14 -3.12185e-14 0)
(-6.82806e-14 -1.51712e-13 0)
(-4.2578e-14 -1.54298e-13 0)
(3.77869e-14 -8.16604e-14 0)
(9.67023e-14 -1.37611e-14 0)
(-2.12407e-14 -1.78396e-14 0)
(-3.48364e-14 -9.91568e-14 0)
(8.43436e-15 -1.42916e-13 0)
(-8.95141e-15 -1.92814e-13 0)
(-6.78972e-14 -1.79377e-13 0)
(6.57476e-15 -1.25681e-13 0)
(7.42137e-14 -1.19312e-13 0)
(3.86974e-14 -8.12423e-14 0)
(-2.5096e-14 -1.72424e-14 0)
(3.2765e-14 -3.12503e-14 0)
(8.90536e-14 -8.21602e-14 0)
(-1.88669e-14 -1.70037e-13 0)
(-2.18985e-15 -9.42788e-14 0)
(2.81237e-14 -1.55648e-13 0)
(-6.51457e-14 -1.07656e-13 0)
(-2.62829e-15 -9.6039e-14 0)
(3.0099e-14 -1.0457e-13 0)
(-4.14339e-14 -1.36515e-13 0)
(-1.04732e-13 -1.40857e-13 0)
(-1.24709e-13 -1.48701e-13 0)
(-1.85227e-13 -1.84653e-13 0)
(-3.69455e-14 -1.27211e-13 0)
(8.37506e-14 -1.27516e-13 0)
(5.91243e-14 -1.19998e-13 0)
(7.51607e-14 -1.54321e-13 0)
(-1.34716e-14 -1.49523e-13 0)
(2.44665e-14 -1.56232e-13 0)
(-6.35026e-16 -1.36909e-13 0)
(-1.07521e-14 -1.39188e-13 0)
(5.15878e-14 -1.68952e-13 0)
(9.88072e-14 -2.07738e-13 0)
(1.46299e-13 -1.85883e-13 0)
(8.05538e-14 -2.16957e-13 0)
(1.88042e-14 -2.48092e-13 0)
(1.09482e-13 -1.9358e-13 0)
(2.15633e-13 -8.27104e-14 0)
(8.54364e-14 -1.80046e-13 0)
(-3.36985e-14 -2.62268e-13 0)
(-9.4456e-14 -2.59199e-13 0)
(-1.23414e-13 -1.45031e-13 0)
(-6.66983e-14 -9.50629e-14 0)
(-9.03959e-14 -1.01799e-13 0)
(-9.58201e-14 -7.40211e-14 0)
(-1.40698e-13 -8.87055e-14 0)
(-1.45097e-13 -8.05699e-14 0)
(-1.00322e-13 -1.24358e-13 0)
(-4.97846e-14 -1.49863e-13 0)
(2.75843e-14 -1.1243e-13 0)
(1.05498e-13 -4.35227e-14 0)
(1.58412e-13 1.88064e-14 0)
(5.95243e-14 -6.31981e-14 0)
(-6.9194e-15 -2.46755e-13 0)
(-6.50372e-14 -1.70157e-13 0)
(-4.94243e-14 -1.50185e-13 0)
(-5.30022e-14 -1.29557e-13 0)
(6.77646e-14 -9.25712e-14 0)
(1.47408e-13 -1.16683e-13 0)
(4.25474e-14 -1.75016e-13 0)
(6.65421e-14 -1.58159e-13 0)
(6.22929e-14 -5.08873e-14 0)
(1.27479e-13 -1.20925e-13 0)
(1.25169e-13 -1.5872e-13 0)
(7.47229e-14 -1.41044e-13 0)
(6.98539e-14 -1.39905e-13 0)
(-5.01299e-14 -1.54705e-13 0)
(8.56361e-15 -1.99818e-13 0)
(1.64245e-13 -2.0892e-13 0)
(6.08178e-14 -2.69315e-13 0)
(2.96313e-15 -2.61142e-13 0)
(-2.41804e-14 -2.94647e-13 0)
(-9.59879e-14 -2.84879e-13 0)
(-8.61903e-14 -2.24518e-13 0)
(-1.28845e-13 -2.39183e-13 0)
(-6.22613e-14 -2.40281e-13 0)
(2.61629e-14 -2.82537e-13 0)
(-7.53261e-14 -2.33528e-13 0)
(-1.03607e-13 -2.7321e-13 0)
(-1.16331e-13 -3.0667e-13 0)
(-6.30282e-14 -3.38694e-13 0)
(4.17161e-14 -2.839e-13 0)
(6.29617e-14 -2.28983e-13 0)
(1.16649e-13 -1.71054e-13 0)
(1.08837e-13 -2.39427e-13 0)
(-5.74535e-16 -2.64802e-13 0)
(6.71259e-14 -2.32222e-13 0)
(1.22402e-13 -1.63382e-13 0)
(2.01913e-14 -1.89995e-13 0)
(2.34785e-14 -1.99786e-13 0)
(-2.57179e-14 -1.59141e-13 0)
(-5.82201e-14 -1.92317e-13 0)
(-7.9138e-14 -2.56465e-13 0)
(-1.37179e-13 -2.11894e-13 0)
(-1.73185e-13 -1.41702e-13 0)
(-1.06992e-13 -1.77088e-13 0)
(-4.59366e-14 -9.34412e-14 0)
(4.4417e-14 1.43529e-14 0)
(2.52638e-14 -7.34876e-14 0)
(-1.98483e-14 -1.44184e-14 0)
(-3.9141e-14 -1.24644e-13 0)
(-7.50556e-14 -1.5023e-13 0)
(-5.18966e-14 -1.2519e-13 0)
(-5.22324e-14 -1.21398e-13 0)
(-7.52472e-14 -2.0809e-14 0)
(1.08732e-14 4.67405e-15 0)
(5.38968e-14 -8.45872e-14 0)
(4.54078e-14 -2.56131e-14 0)
(-2.16578e-15 -1.17742e-13 0)
(-3.02999e-14 -7.55503e-14 0)
(-4.57453e-14 -1.06958e-13 0)
(-1.61798e-14 -1.24575e-13 0)
(-1.34949e-14 -1.43686e-13 0)
(1.96252e-14 -6.05069e-14 0)
(1.35998e-13 -9.18312e-14 0)
(1.14765e-13 -2.11886e-14 0)
(1.17935e-13 -6.62055e-14 0)
(1.33033e-13 2.72458e-14 0)
(-4.98768e-14 -6.2535e-14 0)
(-1.94013e-13 -7.93967e-14 0)
(-2.17897e-13 -1.16324e-13 0)
(-2.17287e-13 -7.16522e-14 0)
(-7.51038e-14 2.0486e-14 0)
(7.97891e-14 -3.9023e-14 0)
(1.16116e-13 -8.51699e-15 0)
(4.99751e-14 -5.09747e-14 0)
(-1.07561e-14 -6.64297e-14 0)
(-2.45087e-14 -9.89087e-14 0)
(1.38247e-14 -4.43503e-14 0)
(4.21728e-14 -1.06023e-13 0)
(-2.78547e-14 -8.46894e-14 0)
(1.38739e-14 -1.4369e-13 0)
(-4.85991e-14 -1.27648e-13 0)
(-7.66696e-14 -1.86905e-13 0)
(4.1642e-14 -1.64872e-13 0)
(-2.49163e-14 -1.8686e-13 0)
(-1.5309e-13 -1.50924e-13 0)
(-1.19357e-13 -1.46683e-13 0)
(-3.03413e-14 -5.92484e-14 0)
(-1.0813e-14 -1.14177e-13 0)
(-4.03561e-14 -1.2961e-14 0)
(-6.06969e-14 4.30213e-15 0)
(3.53361e-14 4.12969e-14 0)
(2.85564e-14 -1.40475e-13 0)
(-2.76864e-14 -1.67443e-13 0)
(5.32487e-14 -1.62243e-13 0)
(1.12434e-13 -1.29937e-13 0)
(1.81272e-13 -5.61892e-14 0)
(1.98998e-13 -7.29362e-14 0)
(1.18623e-13 4.57882e-15 0)
(6.06784e-14 -9.07536e-14 0)
(-7.27928e-15 -1.65622e-13 0)
(-2.84605e-14 -2.05911e-13 0)
(-3.53518e-15 -1.78387e-13 0)
(-1.974e-14 -2.07608e-13 0)
(-5.45193e-14 -1.75985e-13 0)
(1.13269e-14 -1.33776e-13 0)
(-2.66585e-14 -5.37174e-14 0)
(-8.43439e-14 -7.34394e-14 0)
(-2.92886e-14 -9.91492e-14 0)
(5.05158e-14 -7.85585e-14 0)
(5.49988e-14 -5.75861e-14 0)
(-4.29715e-14 -1.15377e-13 0)
(-6.5135e-14 -3.74865e-14 0)
(-1.16494e-13 -8.93084e-14 0)
(-1.31281e-13 -3.38005e-14 0)
(-4.4317e-14 -1.10115e-13 0)
(1.18827e-13 -9.48295e-14 0)
(1.0664e-13 -1.26805e-13 0)
(-2.51066e-14 -1.08976e-13 0)
(-6.80822e-14 -3.29223e-14 0)
(-2.88932e-14 -7.32023e-14 0)
(-1.38611e-14 -6.08348e-14 0)
(-1.7096e-14 -1.12334e-13 0)
(2.67791e-14 -2.84072e-14 0)
(8.49401e-15 -1.08277e-13 0)
(1.02544e-13 -4.83543e-14 0)
(4.89538e-14 -4.67768e-14 0)
(-1.20954e-14 2.18138e-15 0)
(3.76869e-15 -1.4633e-13 0)
(-2.11798e-14 -1.827e-13 0)
(6.07594e-14 -1.30316e-13 0)
(-1.51456e-14 -1.64443e-13 0)
(-1.13706e-13 -1.57428e-13 0)
(-4.1739e-14 -1.31405e-13 0)
(6.60823e-14 -1.74278e-13 0)
(1.29186e-14 -1.00684e-13 0)
(-7.81358e-14 -1.38867e-13 0)
(-1.41655e-13 -6.32426e-14 0)
(-1.18582e-13 -8.48099e-14 0)
(-3.64752e-15 -2.95068e-14 0)
(-1.33861e-14 -8.75256e-14 0)
(2.7504e-15 -9.92918e-14 0)
(6.50108e-14 -1.14005e-13 0)
(5.13118e-14 -6.28333e-14 0)
(4.19111e-14 -2.70055e-14 0)
(4.39908e-14 -1.12227e-13 0)
(-1.2668e-14 -8.18311e-14 0)
(3.59401e-14 -1.28301e-13 0)
(1.13122e-13 -1.0134e-13 0)
(8.82112e-14 -1.66527e-13 0)
(3.04082e-14 -1.21034e-13 0)
(7.2649e-14 -1.7601e-13 0)
(1.757e-13 -1.02864e-13 0)
(1.76243e-13 -1.5158e-13 0)
(-2.05339e-14 -2.08441e-13 0)
(-2.85253e-14 -3.07461e-13 0)
(-5.20045e-14 -2.57253e-13 0)
(-1.4567e-13 -2.18761e-13 0)
(-6.94086e-14 -1.89404e-13 0)
(-3.0045e-14 -1.47162e-13 0)
(-7.86117e-14 -8.40493e-14 0)
(-1.03924e-13 -9.09668e-14 0)
(-7.82542e-14 -1.34726e-14 0)
(-4.57667e-14 -6.74564e-14 0)
(-5.26984e-14 -3.55867e-16 0)
(-1.97357e-14 -5.78062e-14 0)
(1.18294e-13 -2.01666e-14 0)
(1.54776e-13 -8.73641e-14 0)
(-7.0116e-15 -9.00048e-14 0)
(-5.88564e-14 -1.43489e-13 0)
(-5.88834e-15 -1.0346e-13 0)
(-3.95165e-14 -3.13433e-14 0)
(-3.32063e-14 -4.11277e-14 0)
(7.929e-14 -3.13577e-15 0)
(5.94819e-14 -7.91467e-14 0)
(6.50653e-17 -8.9758e-14 0)
(1.00811e-13 -2.10043e-13 0)
(3.83795e-14 -2.08165e-13 0)
(9.26191e-14 -8.98314e-14 0)
(6.09185e-14 -1.93227e-13 0)
(1.04298e-13 -2.36133e-13 0)
(1.30034e-13 -2.00966e-13 0)
(-1.73809e-14 -1.65102e-13 0)
(2.83756e-14 -1.14393e-13 0)
(5.55318e-14 -1.55269e-13 0)
(6.68955e-15 -2.57366e-13 0)
(-1.4367e-15 -2.88866e-13 0)
(-6.1843e-14 -3.50684e-13 0)
(-8.79339e-14 -2.77555e-13 0)
(-8.44046e-14 -2.9239e-13 0)
(-7.41846e-14 -2.69048e-13 0)
(-6.89799e-14 -1.76693e-13 0)
(-6.13163e-15 -2.32992e-13 0)
(-1.13515e-14 -2.52156e-13 0)
(-1.18582e-13 -2.30027e-13 0)
(-1.34917e-13 -2.61102e-13 0)
(-3.14111e-14 -2.01024e-13 0)
(1.21775e-13 -2.31977e-13 0)
(1.31526e-13 -1.49798e-13 0)
(5.02723e-14 -1.17201e-13 0)
(1.45178e-14 -1.76518e-13 0)
(4.56737e-14 -1.90755e-13 0)
(8.36781e-14 -1.26246e-13 0)
(7.45415e-14 -1.51185e-13 0)
(-9.74209e-16 -2.16931e-13 0)
(7.14607e-14 -2.56617e-13 0)
(6.25783e-14 -2.18413e-13 0)
(-1.04419e-13 -1.70021e-13 0)
(-1.43495e-13 -2.26172e-13 0)
(-1.01062e-13 -1.61476e-13 0)
(-1.3588e-13 -1.76898e-13 0)
(-6.16473e-14 -1.30738e-13 0)
(5.52548e-14 -1.31907e-13 0)
(6.37638e-14 -1.09114e-13 0)
(3.86352e-14 -1.24181e-13 0)
(-3.28592e-14 -9.7653e-14 0)
(-8.26676e-14 -1.36054e-13 0)
(-2.81703e-14 -1.07849e-13 0)
(-5.58403e-14 -9.63356e-14 0)
(-5.38107e-14 -3.8619e-14 0)
(-5.10528e-14 -7.65474e-14 0)
(-8.35183e-14 -7.77363e-14 0)
(4.07895e-14 -1.00996e-13 0)
(5.8544e-14 -7.53517e-14 0)
(2.23035e-15 -1.02917e-13 0)
(9.86919e-16 -5.41136e-14 0)
(-8.47579e-14 -6.72938e-14 0)
(-5.19158e-14 -9.83189e-14 0)
(1.41035e-14 -1.33547e-13 0)
(6.52948e-14 -7.34654e-14 0)
(1.5417e-13 -5.19238e-14 0)
(1.86151e-13 -8.87518e-14 0)
(1.58783e-13 -2.94328e-14 0)
(6.5223e-14 -6.26942e-14 0)
(-1.09151e-13 -8.29051e-14 0)
(-1.93897e-13 -1.06734e-13 0)
(-1.98247e-13 -1.80433e-14 0)
(-1.70632e-13 -6.754e-14 0)
(-7.02802e-14 -4.30305e-15 0)
(6.36875e-14 -2.75245e-14 0)
(1.19405e-13 -5.59547e-14 0)
(3.37545e-14 -7.65067e-14 0)
(-3.57553e-14 -2.40395e-14 0)
(-2.45019e-14 -8.17797e-14 0)
(-2.34985e-14 -1.05868e-13 0)
(-1.05717e-15 -1.67773e-13 0)
(-3.71281e-14 -1.51432e-13 0)
(7.71821e-15 -7.88235e-14 0)
(-2.34404e-16 1.13103e-14 0)
(-4.39669e-14 -1.38138e-14 0)
(4.28292e-14 -2.76847e-14 0)
(-2.17633e-14 -9.90413e-14 0)
(-1.13417e-13 -1.00042e-13 0)
(-7.76573e-14 -5.77469e-14 0)
(-6.42319e-14 -5.97637e-14 0)
(2.30815e-15 -6.78863e-14 0)
(-7.4873e-15 -4.33099e-14 0)
(-1.28394e-14 -6.25859e-14 0)
(-8.70364e-15 -5.75682e-15 0)
(-5.71866e-14 -5.47958e-14 0)
(-4.25847e-14 -9.5611e-14 0)
(3.18511e-14 -9.31741e-14 0)
(1.6048e-13 -1.55003e-13 0)
(2.2259e-13 -1.15403e-13 0)
(2.29573e-13 -1.10879e-13 0)
(1.43096e-13 -8.45421e-14 0)
(-5.24641e-15 -1.10588e-13 0)
(-8.06205e-14 -6.32039e-14 0)
(-3.76042e-14 -1.2551e-13 0)
(7.3744e-15 -1.17151e-13 0)
(-2.49766e-14 -1.58706e-13 0)
(-2.16282e-14 -8.66134e-14 0)
(2.31038e-14 -1.15834e-13 0)
(2.84239e-15 -7.64858e-14 0)
(-1.00041e-13 -3.88753e-14 0)
(4.68597e-15 -6.99722e-14 0)
(9.14081e-14 -6.0373e-14 0)
(-1.78289e-14 -1.15353e-13 0)
(-1.60724e-14 -1.47435e-13 0)
(-3.72555e-14 -1.28549e-13 0)
(-9.72515e-14 -1.26439e-13 0)
(-6.86456e-14 -6.95839e-14 0)
(-7.22576e-14 -3.01225e-14 0)
(4.50016e-15 -2.85232e-14 0)
(6.03618e-14 -8.22051e-14 0)
(5.41945e-14 -9.24722e-14 0)
(1.16418e-14 6.17318e-15 0)
(-5.05079e-15 -2.12953e-14 0)
(-3.41587e-14 -5.24689e-14 0)
(3.85993e-15 -4.5123e-14 0)
(-3.59415e-14 -5.61482e-14 0)
(5.03176e-14 -6.524e-14 0)
(1.11286e-13 -1.41321e-15 0)
(3.69464e-14 -6.9188e-14 0)
(-3.98405e-14 -5.75589e-14 0)
(-7.1599e-14 -7.54155e-14 0)
(-1.65799e-14 -4.8988e-14 0)
(1.36685e-14 -1.50966e-13 0)
(1.30116e-14 -1.58716e-13 0)
(-5.35455e-14 -1.53688e-13 0)
(-4.32447e-14 -8.61025e-14 0)
(9.32519e-14 -1.25065e-13 0)
(3.03414e-14 -1.43673e-13 0)
(-4.23286e-14 -9.55429e-14 0)
(-9.37736e-14 -9.11728e-14 0)
(-1.13792e-13 -6.49639e-14 0)
(-4.86538e-14 -3.3709e-14 0)
(-5.79445e-14 -5.87407e-14 0)
(4.56814e-14 6.67261e-15 0)
(1.03832e-13 1.17304e-14 0)
(2.51938e-14 2.87383e-14 0)
(-4.03391e-15 4.23381e-15 0)
(3.15597e-14 -6.57893e-14 0)
(8.96676e-15 -1.35447e-13 0)
(4.8406e-14 -1.55441e-13 0)
(5.2615e-14 -1.24063e-13 0)
(7.22762e-14 -1.07369e-13 0)
(5.69655e-14 -8.99876e-14 0)
(9.32081e-14 -1.24699e-13 0)
(1.45173e-13 -1.27908e-13 0)
(9.96764e-14 -2.02234e-13 0)
(-2.08539e-15 -1.84892e-13 0)
(-6.67915e-14 -2.10656e-13 0)
(-3.00613e-14 -2.258e-13 0)
(-9.21389e-14 -1.87204e-13 0)
(-7.13643e-14 -1.37144e-13 0)
(1.15691e-14 -9.18078e-14 0)
(-2.46476e-14 -1.13498e-13 0)
(-6.59263e-14 -2.01235e-14 0)
(-6.54244e-14 -3.2481e-14 0)
(-3.51473e-14 -6.1508e-14 0)
(-5.06481e-14 -5.73828e-14 0)
(-5.70595e-14 -6.91584e-14 0)
(6.06997e-14 -3.93438e-14 0)
(9.58861e-14 -1.40761e-13 0)
(2.79158e-14 -1.02456e-13 0)
(4.15033e-15 -4.78395e-14 0)
(2.67135e-14 -4.81323e-14 0)
(-3.04134e-16 -7.4569e-14 0)
(3.34939e-14 -2.28428e-14 0)
(1.87764e-14 -7.44622e-15 0)
(2.85111e-14 -4.12584e-14 0)
(5.32898e-14 -3.38793e-14 0)
(6.24165e-14 -1.48036e-13 0)
(1.36491e-13 -1.82642e-13 0)
(8.54405e-14 -1.18106e-13 0)
(-8.71623e-15 -1.60923e-13 0)
(4.37385e-14 -1.90209e-13 0)
(1.02257e-13 -2.44741e-13 0)
(4.46657e-14 -2.40855e-13 0)
(5.59251e-14 -2.09504e-13 0)
(2.09647e-14 -1.91529e-13 0)
(6.08238e-15 -1.64471e-13 0)
(-2.89455e-14 -2.22923e-13 0)
(-2.90407e-14 -2.72344e-13 0)
(-5.5452e-14 -2.00333e-13 0)
(-1.00494e-13 -1.82827e-13 0)
(-3.00486e-14 -1.78013e-13 0)
(-1.59386e-14 -1.39334e-13 0)
(-2.77758e-14 -1.68277e-13 0)
(5.47128e-16 -1.54264e-13 0)
(-9.27116e-14 -1.80309e-13 0)
(-1.30246e-13 -2.0903e-13 0)
(-3.7214e-15 -1.64993e-13 0)
(1.15624e-13 -1.30824e-13 0)
(9.37288e-14 -1.013e-13 0)
(4.39449e-14 -1.65173e-13 0)
(7.14387e-14 -1.30478e-13 0)
(5.47095e-14 -1.02241e-13 0)
(2.63188e-14 -5.54012e-14 0)
(-1.93258e-14 -1.70742e-13 0)
(-9.22123e-14 -2.20245e-13 0)
(1.90257e-14 -2.0881e-13 0)
(9.45258e-14 -2.63957e-13 0)
(-4.52176e-14 -2.04819e-13 0)
(-5.13562e-14 -9.61715e-14 0)
(-8.9018e-14 -5.54088e-14 0)
(-1.25048e-13 -7.69511e-14 0)
(-6.1122e-14 -2.0365e-14 0)
(1.04774e-14 -8.09891e-14 0)
(2.77833e-14 -7.02033e-14 0)
(1.20311e-14 -4.08204e-14 0)
(-1.07134e-15 -2.49626e-14 0)
(-3.47436e-14 -1.09408e-14 0)
(-6.21413e-14 -8.14285e-15 0)
(-2.25819e-14 -5.38905e-14 0)
(-5.68876e-14 -3.14422e-14 0)
(-9.97027e-14 -1.33014e-13 0)
(-2.33937e-15 -7.14298e-14 0)
(6.78361e-14 3.2858e-15 0)
(3.59545e-14 9.22765e-15 0)
(-2.29791e-14 5.20555e-14 0)
(-2.22438e-14 -8.96908e-16 0)
(-8.07363e-14 -3.42103e-14 0)
(-7.98224e-14 1.19696e-15 0)
(3.09344e-15 -5.47841e-14 0)
(6.43753e-14 -5.48549e-15 0)
(1.29311e-13 9.55275e-16 0)
(1.86014e-13 -2.06014e-14 0)
(1.75066e-13 -5.58507e-14 0)
(4.72034e-14 -1.20563e-13 0)
(-1.11488e-13 -8.06324e-14 0)
(-1.16834e-13 -4.99848e-14 0)
(-1.74711e-13 3.61082e-14 0)
(-2.25136e-13 -2.33111e-15 0)
(-2.67282e-14 4.44404e-15 0)
(4.36434e-14 8.9184e-14 0)
(7.73206e-14 3.4936e-14 0)
(4.45789e-14 -3.01883e-14 0)
(-3.96688e-14 -1.07166e-14 0)
(-8.58132e-14 -8.02118e-14 0)
(-5.3365e-14 -8.84789e-14 0)
(-4.2034e-15 -7.92005e-14 0)
(5.3828e-14 -1.42463e-14 0)
(1.31659e-13 7.19444e-14 0)
(2.30066e-14 1.11363e-13 0)
(-1.05844e-13 1.14982e-13 0)
(-4.54402e-14 2.45701e-14 0)
(-1.06771e-13 -4.06842e-14 0)
(-6.8304e-14 -5.46849e-14 0)
(-5.17356e-14 -2.09969e-14 0)
(-5.33009e-14 -2.32471e-14 0)
(-2.45497e-14 6.25146e-14 0)
(-2.1602e-15 2.98347e-14 0)
(2.22924e-14 5.99356e-14 0)
(1.8175e-14 -1.95242e-14 0)
(-8.45843e-14 4.44752e-14 0)
(-9.0492e-14 -7.20975e-15 0)
(-7.86813e-16 4.39776e-14 0)
(1.07294e-13 -2.4311e-14 0)
(2.28056e-13 -1.16796e-14 0)
(1.95084e-13 -1.76935e-14 0)
(1.46132e-13 5.81582e-15 0)
(4.25893e-14 -1.77456e-14 0)
(-2.9172e-14 3.74669e-14 0)
(-7.9873e-14 -9.31146e-15 0)
(-1.82227e-15 -2.84987e-14 0)
(-2.71468e-14 -2.81646e-14 0)
(-7.88903e-14 -1.54751e-14 0)
(-2.79837e-14 -6.05761e-14 0)
(3.47606e-14 -2.35616e-14 0)
(-6.31402e-14 -5.48139e-14 0)
(-1.00239e-14 -5.22447e-14 0)
(5.17195e-14 -9.77056e-14 0)
(-7.8378e-15 -7.65924e-14 0)
(-2.76437e-14 -4.73071e-14 0)
(-6.70096e-14 -1.08984e-13 0)
(-2.32413e-14 -5.69824e-14 0)
(-6.06638e-14 -1.60536e-14 0)
(9.0438e-15 2.80549e-15 0)
(2.83595e-14 7.76565e-14 0)
(3.87147e-14 3.55299e-14 0)
(8.69651e-14 -8.98777e-15 0)
(2.92639e-14 6.60268e-14 0)
(-9.59985e-14 1.59818e-14 0)
(-9.3851e-14 2.58777e-14 0)
(-4.36521e-14 -1.36006e-14 0)
(1.70292e-14 5.50494e-14 0)
(1.14357e-13 1.05557e-13 0)
(8.56711e-14 4.69322e-14 0)
(-1.93786e-15 -2.47496e-14 0)
(-5.47194e-15 -2.02664e-14 0)
(3.42516e-15 -1.1345e-14 0)
(-7.77793e-14 3.34115e-14 0)
(-7.47936e-14 -4.98956e-14 0)
(-1.84302e-14 -1.09059e-13 0)
(-2.6135e-15 -7.18582e-14 0)
(1.4122e-15 -4.20964e-14 0)
(1.80285e-14 -4.8646e-14 0)
(4.0142e-14 -9.10149e-14 0)
(-3.87411e-14 -3.90967e-14 0)
(-1.13871e-13 -1.26211e-13 0)
(-7.44637e-14 -7.63001e-14 0)
(-5.24598e-15 -9.75281e-15 0)
(5.0745e-14 -2.24039e-14 0)
(5.46959e-14 4.11179e-14 0)
(7.49512e-14 -2.07665e-14 0)
(5.0761e-15 -3.49498e-14 0)
(-5.15684e-14 -4.2443e-14 0)
(-3.3142e-14 -4.54216e-14 0)
(-6.70408e-14 -8.41785e-14 0)
(1.81402e-14 -1.14211e-13 0)
(1.06499e-13 -8.21802e-14 0)
(9.90626e-14 -5.71483e-14 0)
(-9.02973e-15 -9.61295e-14 0)
(3.41754e-14 -1.18718e-13 0)
(1.67896e-13 -1.59645e-13 0)
(1.35674e-13 -1.41007e-13 0)
(-3.56845e-14 -9.55592e-14 0)
(-8.53006e-14 -1.19329e-13 0)
(-2.79682e-14 -1.64934e-13 0)
(-4.40732e-14 -1.8708e-13 0)
(-1.63472e-14 -1.05072e-13 0)
(1.35747e-15 -1.01075e-13 0)
(6.51277e-15 -6.273e-14 0)
(-2.26101e-14 4.55669e-14 0)
(-1.23549e-13 3.20305e-14 0)
(-7.44275e-14 -6.92759e-14 0)
(-1.06413e-14 -4.22681e-14 0)
(8.19931e-15 -4.76833e-14 0)
(2.57591e-14 -5.65438e-15 0)
(7.86842e-14 -6.6728e-14 0)
(3.39702e-14 -5.62396e-14 0)
(-3.52907e-14 -2.58749e-14 0)
(-2.04564e-15 -4.10035e-14 0)
(-1.90013e-14 -6.19856e-14 0)
(4.56415e-14 -2.31729e-14 0)
(8.13139e-14 2.68093e-14 0)
(3.1466e-14 7.18214e-15 0)
(2.23342e-14 -5.13107e-14 0)
(6.64598e-14 -3.19456e-14 0)
(9.27305e-14 -5.6418e-14 0)
(6.38197e-14 -1.81351e-13 0)
(-2.99483e-14 -1.96365e-13 0)
(1.87147e-14 -1.25949e-13 0)
(6.10508e-14 -8.90601e-14 0)
(5.32968e-14 -7.31129e-14 0)
(3.72566e-14 -1.25728e-13 0)
(8.3195e-14 -2.02846e-13 0)
(-7.70524e-15 -1.50871e-13 0)
(-8.06922e-14 -1.89509e-13 0)
(-1.86451e-14 -1.65599e-13 0)
(-1.76596e-14 -1.43177e-13 0)
(-6.48117e-14 -1.2132e-13 0)
(-1.59968e-14 -1.27281e-13 0)
(-5.66479e-14 -9.18912e-14 0)
(-1.63174e-14 -1.64332e-13 0)
(-2.11537e-14 -1.59962e-13 0)
(-1.43218e-13 -2.01125e-13 0)
(-7.33798e-14 -1.28476e-13 0)
(8.05637e-14 -1.03982e-13 0)
(1.62237e-13 -9.27766e-14 0)
(6.41151e-14 -1.46666e-13 0)
(-5.02658e-15 -8.77449e-14 0)
(3.75057e-14 -9.95036e-14 0)
(8.59633e-14 -1.23955e-13 0)
(-3.77872e-14 -1.26691e-13 0)
(-1.06689e-13 -2.31969e-13 0)
(-3.58248e-14 -1.57584e-13 0)
(7.86831e-14 -1.17583e-13 0)
(9.89324e-14 -8.03628e-14 0)
(2.8564e-14 -5.44692e-14 0)
(-9.42022e-15 -6.25941e-14 0)
(-5.45733e-14 -6.42712e-14 0)
(-7.57254e-14 -4.69562e-15 0)
(-4.76949e-14 9.96836e-14 0)
(1.64804e-14 6.05992e-14 0)
(6.32494e-14 4.60573e-14 0)
(6.0478e-14 2.52107e-14 0)
(3.01835e-14 6.15505e-14 0)
(1.94227e-14 6.22406e-14 0)
(-7.57862e-14 4.61187e-14 0)
(-6.57354e-14 -1.45759e-14 0)
(-1.02935e-13 -4.82817e-14 0)
(-8.95915e-14 -3.29881e-14 0)
(5.7869e-14 2.11312e-14 0)
(1.23815e-13 -1.38286e-14 0)
(7.62204e-14 5.0463e-14 0)
(-9.38845e-14 1.01818e-13 0)
(-8.56907e-14 1.22496e-13 0)
(-8.48071e-14 9.58942e-14 0)
(-9.30739e-14 1.04401e-13 0)
(3.33641e-15 1.05002e-14 0)
(1.08104e-13 3.68227e-14 0)
(1.55964e-13 -2.04375e-14 0)
(1.43778e-13 1.03297e-14 0)
(9.69878e-14 -5.59667e-14 0)
(4.09258e-14 -5.65321e-14 0)
(-4.77019e-14 -2.0217e-14 0)
(-5.65935e-14 4.03968e-14 0)
(-1.13587e-13 1.30337e-14 0)
(-1.74351e-13 8.57147e-14 0)
(-2.06483e-14 1.17845e-13 0)
(3.87881e-14 3.28905e-14 0)
(3.20199e-14 2.36316e-14 0)
(2.11877e-14 -1.50426e-14 0)
(-1.07816e-13 1.77209e-14 0)
(-8.67353e-14 -1.53127e-14 0)
(-2.42557e-14 6.12324e-14 0)
(5.90148e-14 1.31589e-13 0)
(1.23223e-13 1.04459e-13 0)
(1.15587e-13 1.10321e-13 0)
(2.39556e-17 -9.52623e-16 0)
(-1.04713e-13 6.3384e-14 0)
(-1.27064e-13 5.74085e-14 0)
(-6.81865e-14 -1.51725e-14 0)
(-5.32643e-14 9.5696e-14 0)
(-5.00851e-14 8.59314e-14 0)
(7.56259e-15 3.52204e-14 0)
(5.07845e-14 1.88663e-14 0)
(8.65993e-15 7.50713e-14 0)
(-6.45853e-14 4.65417e-14 0)
(-3.32989e-14 1.85749e-15 0)
(-2.06186e-14 6.56301e-15 0)
(-5.80935e-14 1.43536e-13 0)
(-1.04053e-14 1.95309e-13 0)
(7.1487e-14 1.58666e-13 0)
(2.35345e-13 1.60621e-13 0)
(2.39669e-13 9.77192e-14 0)
(1.47701e-13 9.46544e-14 0)
(4.42586e-14 7.47944e-14 0)
(-1.21427e-13 9.80925e-14 0)
(-1.09542e-13 9.85428e-14 0)
(-3.03535e-14 1.29744e-13 0)
(-4.50091e-16 7.30181e-14 0)
(-4.75736e-14 4.98938e-14 0)
(2.28131e-14 1.28886e-14 0)
(-6.18358e-15 2.78348e-14 0)
(-1.24738e-13 1.33435e-14 0)
(-4.768e-14 1.3708e-14 0)
(3.05762e-14 -3.1969e-14 0)
(4.02816e-14 4.76966e-15 0)
(-2.98588e-14 7.49161e-15 0)
(-7.93907e-14 1.85397e-14 0)
(1.78115e-14 -5.24119e-14 0)
(-3.32417e-15 3.84634e-16 0)
(9.81102e-15 3.74322e-14 0)
(6.1e-14 3.05518e-14 0)
(1.23169e-14 3.44e-14 0)
(9.38598e-14 5.20613e-14 0)
(5.48143e-14 8.33382e-17 0)
(-4.82099e-14 8.05187e-14 0)
(-7.60336e-14 1.44619e-13 0)
(-2.03451e-14 5.99122e-14 0)
(8.248e-14 6.7177e-14 0)
(7.09357e-14 9.01898e-14 0)
(1.03941e-14 4.63952e-14 0)
(-2.06104e-14 2.70829e-14 0)
(-1.56046e-14 6.09729e-14 0)
(-4.89533e-14 3.72324e-14 0)
(-1.22934e-13 3.00968e-15 0)
(-7.78593e-14 -3.69899e-14 0)
(-1.32871e-14 -6.46539e-14 0)
(-6.40932e-15 -5.59847e-14 0)
(3.18962e-14 -1.07993e-14 0)
(1.78118e-14 9.79281e-15 0)
(9.83868e-15 2.09773e-14 0)
(-5.25598e-14 -6.45955e-14 0)
(-8.94833e-14 -2.68981e-14 0)
(-1.90233e-14 -3.79776e-14 0)
(-3.40375e-14 -2.34301e-14 0)
(1.72821e-14 -5.76429e-14 0)
(6.39497e-14 -2.39588e-14 0)
(2.68882e-14 2.00485e-14 0)
(3.51076e-14 1.07666e-14 0)
(1.11739e-14 5.52865e-14 0)
(-3.29756e-14 9.21585e-14 0)
(-8.53883e-14 9.49004e-14 0)
(4.68428e-14 1.86027e-14 0)
(9.14649e-14 -2.65506e-14 0)
(5.18546e-14 -9.4202e-14 0)
(4.78527e-16 -5.71866e-14 0)
(1.94195e-14 -3.3765e-14 0)
(1.2961e-13 -6.49487e-14 0)
(1.55137e-13 -8.28793e-14 0)
(-1.90553e-14 -1.05575e-13 0)
(-1.49839e-13 -1.4147e-13 0)
(-7.02071e-14 -1.74053e-13 0)
(-3.31088e-14 -9.43136e-14 0)
(5.14208e-16 -1.04645e-13 0)
(5.78362e-14 -6.00943e-14 0)
(8.49347e-14 1.77533e-15 0)
(5.03872e-14 -4.40196e-15 0)
(-1.61545e-13 7.67302e-17 0)
(-9.62086e-14 -1.94063e-14 0)
(-3.12108e-14 1.18851e-14 0)
(1.23361e-14 -1.84887e-14 0)
(4.27148e-14 3.25743e-14 0)
(1.82957e-14 7.07526e-14 0)
(5.18129e-14 3.95814e-14 0)
(-2.93241e-15 8.61909e-14 0)
(1.51342e-15 5.4192e-15 0)
(-1.33675e-14 4.40293e-14 0)
(7.24289e-14 2.01927e-14 0)
(5.7204e-14 2.44753e-14 0)
(-3.33008e-14 6.21923e-15 0)
(1.50092e-14 3.43012e-14 0)
(7.04558e-14 1.2329e-13 0)
(3.7158e-14 6.07878e-14 0)
(-2.00425e-14 -1.50212e-14 0)
(2.28675e-14 -5.71539e-15 0)
(8.87899e-14 6.13522e-14 0)
(1.14015e-13 -1.56511e-14 0)
(2.50834e-15 -3.08181e-14 0)
(-5.25603e-14 -8.55134e-14 0)
(1.18241e-15 -6.38116e-14 0)
(2.34709e-16 -5.25534e-14 0)
(-2.19249e-14 -1.26116e-14 0)
(2.9538e-14 1.35315e-15 0)
(-9.98344e-15 1.21317e-14 0)
(-9.36347e-14 1.94527e-14 0)
(4.37349e-15 -2.65023e-14 0)
(-2.67721e-14 -2.05018e-14 0)
(-6.54106e-14 -2.61952e-15 0)
(-1.98754e-14 -1.3283e-14 0)
(-6.02199e-14 3.98477e-15 0)
(-2.58031e-14 -1.24218e-14 0)
(2.82246e-14 4.99707e-15 0)
(5.47307e-14 -6.47207e-14 0)
(1.16885e-13 -1.06177e-13 0)
(6.85649e-14 -2.47299e-14 0)
(7.27235e-15 4.85035e-14 0)
(1.95744e-14 2.65211e-14 0)
(-4.1994e-14 -1.14451e-14 0)
(-6.64546e-14 -1.90898e-14 0)
(5.22147e-15 3.8116e-14 0)
(9.90607e-14 5.17287e-14 0)
(1.64661e-13 1.20702e-15 0)
(-1.05531e-14 4.46769e-14 0)
(-4.85393e-14 -1.17503e-14 0)
(-8.08427e-15 4.09113e-14 0)
(2.22911e-16 1.35135e-13 0)
(-1.02051e-14 6.78586e-14 0)
(-3.55515e-14 2.41962e-14 0)
(-1.70208e-14 -3.33093e-14 0)
(2.96122e-14 -8.74938e-14 0)
(1.46366e-14 -3.73044e-14 0)
(-2.59828e-14 -2.41227e-14 0)
(-1.06373e-13 -2.66119e-14 0)
(-6.5135e-14 -7.18358e-14 0)
(-5.32289e-14 -2.39237e-14 0)
(-1.30274e-14 2.33376e-14 0)
(1.72669e-14 7.05192e-14 0)
(4.36497e-14 -5.81267e-14 0)
(1.06562e-13 -1.18321e-13 0)
(3.28561e-14 -1.05402e-13 0)
(-4.12722e-14 -1.02518e-14 0)
(-7.62468e-14 4.06843e-14 0)
(-1.41412e-13 7.45788e-14 0)
(-4.80591e-14 7.18919e-14 0)
(5.58125e-14 1.03079e-13 0)
(1.28582e-13 5.3146e-14 0)
(9.05619e-14 -7.7727e-15 0)
(7.1472e-14 -7.63266e-14 0)
(1.07901e-13 -8.19665e-14 0)
(1.97005e-14 -2.0892e-14 0)
(-6.94993e-14 2.80626e-15 0)
(-8.8234e-14 -3.21734e-14 0)
(-1.00967e-13 3.63884e-14 0)
(-1.39351e-13 5.83313e-14 0)
(-5.45157e-14 -4.34046e-15 0)
(3.74845e-14 -8.64292e-14 0)
(3.41585e-14 -1.30155e-13 0)
(-5.22965e-14 -5.27167e-14 0)
(-4.04801e-14 -2.86715e-14 0)
(5.68746e-14 1.96861e-14 0)
(7.26152e-14 1.21492e-13 0)
(7.47502e-14 1.41967e-13 0)
(5.95906e-16 3.5414e-14 0)
(-6.57373e-14 -7.95833e-14 0)
(-5.96822e-14 -7.84964e-14 0)
(-1.2997e-13 -2.39623e-14 0)
(-2.36776e-14 8.43735e-15 0)
(3.78872e-14 4.685e-14 0)
(-7.10839e-14 7.85469e-14 0)
(-9.31088e-14 1.59942e-14 0)
(1.89785e-14 -3.90236e-14 0)
(5.8859e-14 1.58629e-14 0)
(2.99914e-15 4.0638e-14 0)
(-5.00545e-14 9.92239e-14 0)
(1.55377e-14 2.88876e-14 0)
(6.52678e-14 5.93998e-14 0)
(8.28189e-15 1.27803e-13 0)
(7.20354e-14 2.16827e-13 0)
(1.41512e-13 1.90019e-13 0)
(1.52025e-13 4.71858e-14 0)
(1.1446e-13 4.76397e-14 0)
(5.40093e-14 1.43046e-14 0)
(-2.56713e-14 7.26327e-14 0)
(-5.62417e-14 8.56986e-14 0)
(-7.59421e-14 4.37904e-14 0)
(-4.24014e-14 1.07058e-14 0)
(-1.02025e-13 -1.42534e-14 0)
(-4.98423e-15 1.76581e-14 0)
(5.15556e-14 -1.12815e-14 0)
(-9.01095e-14 2.43546e-14 0)
(-8.53504e-14 3.33758e-14 0)
(-5.84105e-15 -3.67796e-14 0)
(1.75313e-14 -5.5151e-14 0)
(3.48339e-15 -4.63464e-14 0)
(-1.06627e-13 -4.69249e-15 0)
(-3.70213e-14 -2.84756e-14 0)
(5.90648e-14 1.84146e-14 0)
(1.83171e-14 5.17154e-14 0)
(7.75396e-15 2.62279e-14 0)
(5.34454e-14 -1.01303e-14 0)
(7.86893e-14 5.09758e-14 0)
(5.0918e-14 1.21968e-14 0)
(1.89005e-14 9.00547e-14 0)
(-1.40995e-13 7.0616e-14 0)
(-6.99684e-14 5.08855e-14 0)
(5.47522e-14 1.84139e-14 0)
(7.85573e-14 1.7508e-14 0)
(6.91081e-14 -1.84928e-14 0)
(2.21553e-14 6.63408e-14 0)
(-1.51656e-14 2.1397e-14 0)
(-6.58651e-14 2.60441e-14 0)
(-1.45717e-13 7.92621e-15 0)
(-1.70006e-13 -5.17487e-14 0)
(-1.74712e-14 5.54261e-15 0)
(6.42452e-14 2.26247e-14 0)
(6.00354e-14 8.17271e-14 0)
(1.64277e-14 -8.5736e-15 0)
(-3.064e-14 -3.58254e-15 0)
(-5.67769e-14 -5.5166e-14 0)
(-6.67791e-14 4.78014e-14 0)
(-9.08013e-14 3.09528e-14 0)
(-4.54207e-14 -7.73041e-15 0)
(5.25181e-14 -6.95795e-14 0)
(1.57399e-13 -1.33258e-13 0)
(1.0655e-13 -4.14144e-14 0)
(6.19805e-14 5.45577e-14 0)
(1.15236e-14 5.7959e-14 0)
(-4.7717e-14 8.18351e-14 0)
(-1.11236e-13 5.78419e-14 0)
(-6.58407e-14 1.13131e-13 0)
(3.41248e-14 2.97276e-14 0)
(7.74181e-14 -3.38286e-14 0)
(3.00385e-14 -8.09245e-14 0)
(-7.84742e-15 -7.59928e-14 0)
(1.0968e-13 -7.8942e-14 0)
(1.06356e-13 -9.81274e-14 0)
(-7.13031e-14 -9.2782e-14 0)
(-1.57476e-13 -1.5144e-13 0)
(-1.20934e-14 -1.30393e-13 0)
(1.80383e-14 -1.05547e-13 0)
(3.42005e-14 -6.71836e-14 0)
(8.78815e-14 -6.49924e-14 0)
(4.87661e-14 -4.64085e-14 0)
(-2.54017e-15 -1.43334e-13 0)
(-1.33608e-13 -1.30508e-13 0)
(-6.19699e-14 2.05103e-14 0)
(-2.97683e-14 8.38433e-14 0)
(3.51067e-14 5.27746e-14 0)
(1.02024e-13 -2.03196e-14 0)
(9.39619e-14 -7.88704e-15 0)
(5.18074e-14 6.00304e-14 0)
(-7.76847e-14 3.59912e-14 0)
(-3.99382e-14 5.03309e-14 0)
(-8.36384e-15 3.33925e-14 0)
(3.16141e-14 9.43145e-14 0)
(8.36229e-14 7.2191e-14 0)
(-1.45293e-14 4.46887e-14 0)
(-1.56456e-14 5.95272e-15 0)
(7.39766e-14 1.36113e-13 0)
(-7.86297e-15 6.99445e-14 0)
(1.80779e-15 2.7223e-14 0)
(4.48788e-14 6.66322e-14 0)
(1.52667e-14 7.41881e-14 0)
(-6.51921e-15 1.00958e-14 0)
(-4.3406e-14 -4.54472e-14 0)