/*--------------------------------*- C++ -*----------------------------------*\
  =========                 |
  \\      /  F ield         | OpenFOAM: The Open Source CFD Toolbox
   \\    /   O peration     | Website:  https://openfoam.org
    \\  /    A nd           | Version:  13
     \\/     M anipulation  |
\*---------------------------------------------------------------------------*/
FoamFile
{
    format      ascii;
    class       volVectorField;
    location    "0.0005";
    object      U;
}
// * * * * * * * * * * * * * * * * * * * * * * * * * * * * * * * * * * * * * //

dimensions      [0 1 -1 0 0 0 0];

internalField   nonuniform List<vector> 
33334
(
(-1.66917e-14 -1.31771e-13 0)
(-6.62718e-14 -1.29137e-13 0)
(-5.9494e-14 -1.69232e-14 0)
(-1.74152e-14 -8.2247e-14 0)
(8.48814e-14 -3.68514e-14 0)
(1.34961e-13 -1.05182e-13 0)
(3.70013e-14 -6.09391e-14 0)
(4.43099e-14 -7.17738e-14 0)
(9.95317e-14 -4.34112e-14 0)
(5.20531e-14 -3.96524e-14 0)
(2.50843e-14 1.01361e-14 0)
(-6.42359e-14 -2.52325e-14 0)
(-2.014e-13 1.01278e-14 0)
(-1.70848e-13 1.286e-15 0)
(-1.74845e-13 -4.93191e-14 0)
(-1.69544e-13 -3.28188e-14 0)
(-2.25639e-14 -7.56652e-15 0)
(1.52773e-13 -3.8818e-14 0)
(1.52362e-13 -9.63862e-14 0)
(3.84842e-14 -1.24999e-13 0)
(-2.28496e-14 -2.21516e-13 0)
(-1.08404e-13 -1.86712e-13 0)
(-1.06637e-13 -1.65009e-13 0)
(-1.39378e-13 -1.36316e-13 0)
(-6.44581e-14 -1.40721e-13 0)
(9.20191e-15 -1.19667e-13 0)
(7.88203e-14 -2.81534e-14 0)
(2.05893e-13 -1.52225e-14 0)
(8.94382e-14 -6.59325e-15 0)
(2.7757e-14 6.02055e-14 0)
(4.2115e-14 3.38792e-14 0)
(-1.34978e-13 -7.57778e-15 0)
(-1.7496e-13 -1.17572e-13 0)
(-6.07965e-14 -1.17374e-13 0)
(4.66128e-15 -1.10873e-13 0)
(7.24102e-14 -6.59599e-14 0)
(1.09952e-13 5.19259e-14 0)
(6.27281e-14 9.85534e-14 0)
(1.82922e-13 1.32718e-13 0)
(2.31811e-13 -7.92114e-15 0)
(8.12132e-14 -1.01644e-13 0)
(-1.46425e-13 -1.19829e-13 0)
(-1.73662e-13 -4.69962e-14 0)
(-8.30334e-14 -9.89265e-14 0)
(-8.13582e-14 -1.01155e-13 0)
(-1.09502e-13 -1.24569e-14 0)
(-1.76144e-13 3.07945e-14 0)
(-1.12752e-13 -3.23137e-15 0)
(4.3083e-14 5.00174e-14 0)
(9.66407e-14 -6.94521e-15 0)
(3.18102e-14 -3.95173e-14 0)
(6.99277e-14 -2.29733e-14 0)
(1.12998e-13 -2.81717e-14 0)
(7.38144e-14 -1.02464e-13 0)
(-1.59896e-14 -6.53715e-14 0)
(-3.66323e-14 -5.03166e-14 0)
(-4.04623e-14 -1.65035e-14 0)
(7.44077e-14 -1.70211e-14 0)
(2.30904e-13 -1.5672e-13 0)
(1.32293e-13 -2.87976e-13 0)
(-2.57309e-15 -2.4878e-13 0)
(1.29241e-14 -9.15012e-14 0)
(2.59719e-14 -1.13696e-13 0)
(-1.21217e-13 -1.53454e-13 0)
(-1.62676e-13 -2.26824e-13 0)
(-1.2089e-13 -1.00906e-13 0)
(-1.47749e-13 -9.36613e-14 0)
(-1.32985e-13 -1.66608e-13 0)
(-7.02545e-14 -1.97993e-13 0)
(-7.05629e-14 -8.47968e-14 0)
(8.75977e-14 1.20582e-14 0)
(2.45456e-13 -9.31576e-14 0)
(1.36626e-13 -1.79301e-13 0)
(-3.71819e-14 -1.25421e-13 0)
(-2.06613e-13 -1.44269e-13 0)
(-1.61126e-13 -1.90688e-13 0)
(-1.76961e-13 -2.42816e-13 0)
(-2.36545e-13 -1.58361e-13 0)
(-2.17056e-14 -3.26849e-14 0)
(1.11397e-13 -1.34248e-15 0)
(6.89565e-14 -6.36348e-14 0)
(-4.7055e-14 1.21685e-14 0)
(-5.63542e-14 8.53166e-14 0)
(1.22254e-13 9.79552e-14 0)
(8.84748e-14 5.76652e-14 0)
(9.92282e-14 2.73847e-14 0)
(1.81163e-13 4.00841e-14 0)
(1.39538e-13 -2.87193e-14 0)
(4.4988e-14 3.13629e-15 0)
(2.77188e-14 -1.71841e-14 0)
(7.88524e-14 2.17881e-14 0)
(8.00547e-14 -7.96596e-14 0)
(-5.48102e-14 -1.03813e-13 0)
(8.43377e-15 -7.79652e-14 0)
(7.19276e-14 -7.11866e-14 0)
(-8.16442e-14 -4.23617e-14 0)
(-1.87685e-13 -5.24108e-14 0)
(-5.84948e-14 -1.59959e-13 0)
(5.09179e-14 -1.96663e-13 0)
(6.11686e-15 -2.04085e-13 0)
(-2.51229e-14 -1.37788e-13 0)
(4.35248e-14 -8.02847e-14 0)
(-1.97257e-14 6.51937e-15 0)
(-9.95645e-14 6.45447e-14 0)
(-4.59406e-14 6.05001e-14 0)
(1.02659e-14 -4.1749e-14 0)
(1.0469e-13 2.41947e-14 0)
(-1.03448e-14 -7.90466e-14 0)
(-7.75428e-14 -1.29117e-13 0)
(2.2231e-15 -1.75801e-13 0)
(9.02808e-15 -1.54983e-13 0)
(-3.08565e-14 -8.00586e-14 0)
(-1.00122e-15 -9.99255e-14 0)
(-2.86788e-14 -2.2752e-14 0)
(1.52791e-14 -5.63493e-14 0)
(1.06222e-13 -1.03883e-14 0)
(1.93087e-14 -3.87465e-14 0)
(-7.99822e-14 -2.2292e-14 0)
(-6.06338e-14 -5.22065e-14 0)
(-4.59625e-14 1.11712e-14 0)
(-8.13204e-14 2.16497e-15 0)
(-1.19436e-14 -5.37583e-14 0)
(-2.43784e-14 -2.35674e-13 0)
(-4.12982e-14 -2.19852e-13 0)
(-5.94498e-14 -1.74713e-13 0)
(-6.95019e-14 -1.95685e-13 0)
(-5.01535e-14 -2.28475e-13 0)
(-1.05083e-13 -2.13716e-13 0)
(7.79584e-14 -1.60982e-13 0)
(9.2551e-14 -7.10299e-14 0)
(-2.21526e-14 -5.60316e-14 0)
(5.48729e-14 3.49848e-14 0)
(3.33935e-14 -1.10744e-13 0)
(-4.50335e-14 -2.06379e-13 0)
(6.28767e-14 -2.18984e-13 0)
(2.01467e-14 -1.55434e-13 0)
(-1.34118e-13 -5.70777e-14 0)
(-6.28353e-14 -3.15739e-14 0)
(4.27294e-14 -3.79815e-14 0)
(1.87866e-14 -6.15659e-14 0)
(8.54806e-14 3.98322e-14 0)
(1.61383e-13 8.13005e-15 0)
(5.77241e-14 -9.86019e-14 0)
(2.07102e-14 -1.3499e-13 0)
(5.15134e-14 -1.74803e-13 0)
(7.80635e-15 -1.92804e-13 0)
(7.29651e-14 -2.13224e-13 0)
(1.0453e-13 -2.81389e-13 0)
(9.52179e-14 -1.9941e-13 0)
(-2.34145e-14 -1.25082e-13 0)
(-4.61964e-14 -9.1375e-14 0)
(6.58142e-14 -7.96091e-14 0)
(-1.00905e-13 -7.86109e-14 0)
(-1.80622e-13 -1.72391e-13 0)
(-8.11522e-14 -5.01048e-14 0)
(5.80384e-15 -9.41807e-14 0)
(3.98769e-14 -4.09071e-14 0)
(-1.74342e-14 -1.14352e-13 0)
(1.75961e-14 -1.69652e-13 0)
(9.67325e-14 -2.3513e-13 0)
(4.71271e-14 -2.76337e-13 0)
(-5.70018e-14 -2.23039e-13 0)
(-9.55127e-15 -1.6452e-13 0)
(-5.64082e-14 -6.85759e-14 0)
(-3.44298e-14 -5.16309e-14 0)
(9.55972e-14 6.05279e-14 0)
(5.2663e-14 -3.04634e-14 0)
(-3.18003e-14 -2.65388e-14 0)
(-9.73681e-15 -7.33602e-14 0)
(-3.10536e-14 2.55288e-14 0)
(-4.77698e-14 -5.58054e-14 0)
(8.539e-14 -4.93168e-14 0)
(1.20013e-13 -1.30464e-13 0)
(2.33277e-14 -6.6658e-14 0)
(3.05197e-14 -9.02023e-15 0)
(1.2645e-13 -3.06686e-14 0)
(1.13043e-13 -8.26017e-14 0)
(5.32135e-14 -3.50769e-14 0)
(-6.07414e-14 -1.40003e-13 0)
(-2.23298e-13 -5.66445e-14 0)
(-2.64238e-13 -8.05791e-14 0)
(-1.95408e-13 -5.79952e-14 0)
(-1.28911e-13 -4.47394e-14 0)
(-2.77439e-14 3.22789e-14 0)
(8.53409e-14 -1.83946e-14 0)
(1.13537e-13 -8.54335e-14 0)
(2.2324e-16 -6.44479e-14 0)
(-1.61838e-14 -5.92447e-14 0)
(1.83901e-15 -4.28828e-14 0)
(-7.14354e-14 -2.51169e-14 0)
(-8.26684e-14 1.90502e-14 0)
(-7.1995e-14 1.25429e-14 0)
(-3.5021e-14 2.15035e-14 0)
(5.25446e-14 4.65557e-14 0)
(1.99417e-13 4.66508e-14 0)
(1.57026e-13 7.67722e-14 0)
(1.08206e-13 1.11629e-13 0)
(1.84546e-14 5.63588e-14 0)
(-1.78454e-13 5.34629e-14 0)
(-2.19823e-13 3.79014e-14 0)
(-5.86647e-14 -8.83427e-15 0)
(2.40801e-14 -9.19399e-14 0)
(8.972e-14 -5.25758e-14 0)
(7.4016e-14 -5.98643e-14 0)
(1.21214e-13 7.28203e-15 0)
(2.122e-13 4.44297e-14 0)
(1.20563e-13 -4.94608e-14 0)
(-2.06774e-14 -2.00176e-13 0)
(-1.19721e-13 -2.49608e-13 0)
(-1.41903e-13 -1.49378e-13 0)
(-1.74409e-13 -2.02049e-13 0)
(-7.95482e-14 -1.7455e-13 0)
(-3.4268e-14 -1.0398e-13 0)
(-1.02678e-13 -4.76756e-14 0)
(-5.47439e-14 5.86042e-15 0)
(1.67697e-14 3.58731e-14 0)
(7.07181e-14 -2.2796e-14 0)
(5.81795e-14 -7.19605e-14 0)
(3.06047e-14 -6.91935e-14 0)
(2.02851e-14 -9.96317e-14 0)
(5.42663e-14 -8.40295e-14 0)
(1.67395e-14 -1.05734e-13 0)
(-4.8859e-15 -1.36554e-13 0)
(-1.78362e-15 -4.07242e-14 0)
(1.6411e-14 1.96748e-14 0)
(7.77797e-14 -7.64698e-14 0)
(1.00263e-13 -2.68991e-13 0)
(1.49233e-13 -2.82571e-13 0)
(9.70509e-14 -1.76717e-13 0)
(-2.89873e-14 -1.61363e-13 0)
(-1.76812e-13 -1.46595e-13 0)
(-1.24638e-13 -9.81949e-14 0)
(-9.179e-14 -7.23928e-14 0)
(-2.32349e-13 -1.15819e-13 0)
(-1.41761e-13 -1.55191e-13 0)
(-5.4989e-14 -4.97554e-14 0)
(-4.00112e-14 -6.83115e-14 0)
(1.53034e-14 -6.31483e-14 0)
(1.4806e-13 -1.45373e-13 0)
(1.4666e-13 -2.13707e-13 0)
(1.52151e-14 -1.7391e-13 0)
(-1.91345e-13 -1.84395e-13 0)
(-1.91254e-13 -1.58944e-13 0)
(-1.89558e-13 -1.8537e-13 0)
(-1.65249e-13 -2.05861e-13 0)
(2.86517e-14 -1.61101e-13 0)
(8.09312e-14 -1.34139e-13 0)
(8.34122e-14 -1.91106e-13 0)
(9.9567e-16 -1.10359e-13 0)
(-7.66276e-16 2.79098e-14 0)
(1.15469e-13 -1.46512e-14 0)
(8.37445e-14 -6.4364e-14 0)
(1.04036e-13 -5.71606e-14 0)
(1.22891e-13 -4.48393e-14 0)
(1.68518e-13 -4.26112e-14 0)
(1.27096e-13 -2.85062e-14 0)
(6.47019e-14 2.46138e-14 0)
(4.05324e-14 -1.5964e-14 0)
(1.14811e-14 -1.03649e-13 0)
(-5.42295e-14 -1.11929e-13 0)
(-2.23202e-14 -4.01983e-14 0)
(1.01384e-14 -1.12611e-13 0)
(-1.06391e-13 -1.2453e-13 0)
(-2.85728e-13 -1.5817e-13 0)
(-1.83513e-13 -1.63086e-13 0)
(-4.91938e-16 -2.16442e-13 0)
(8.13715e-14 -1.33517e-13 0)
(9.65339e-14 -9.14332e-14 0)
(1.43204e-13 -3.18663e-14 0)
(2.07708e-14 -7.97841e-14 0)
(-8.24655e-14 -3.62955e-14 0)
(-1.51013e-13 -8.00962e-14 0)
(-5.15644e-14 -9.28314e-14 0)
(4.76143e-14 -1.2222e-13 0)
(-6.86165e-14 -1.52232e-13 0)
(-5.98211e-14 -2.00627e-13 0)
(8.08287e-14 -1.73994e-13 0)
(1.24244e-13 -6.31639e-14 0)
(1.05011e-14 -5.8051e-14 0)
(-1.4297e-16 -3.51483e-14 0)
(-1.85395e-14 -2.53444e-14 0)
(-5.07116e-15 4.60859e-15 0)
(5.61248e-14 -9.07218e-14 0)
(-7.91658e-15 -1.02488e-13 0)
(-4.22008e-14 -9.98911e-14 0)
(-3.13445e-14 -9.1865e-15 0)
(-6.69264e-14 -7.59577e-14 0)
(-1.15547e-13 -5.58176e-14 0)
(-1.05043e-13 -6.2745e-14 0)
(-1.13546e-13 -2.00907e-13 0)
(-3.63793e-14 -2.15152e-13 0)
(-1.81716e-14 -1.46355e-13 0)
(-7.74004e-14 -2.18449e-13 0)
(-3.33467e-14 -2.63795e-13 0)
(-1.21628e-14 -1.92309e-13 0)
(9.87252e-14 -7.8515e-14 0)
(2.21056e-14 -1.61013e-13 0)
(-9.07411e-15 -1.19471e-13 0)
(1.55953e-14 -1.12575e-13 0)
(-6.6757e-14 -1.26702e-13 0)
(-2.37449e-14 -1.94572e-13 0)
(1.41641e-13 -1.81086e-13 0)
(1.10228e-13 -1.15092e-13 0)
(7.99604e-16 -8.16616e-14 0)
(-5.18971e-14 2.53173e-14 0)
(-3.63124e-14 -1.20657e-14 0)
(4.49005e-14 1.09627e-14 0)
(1.3249e-13 5.91618e-14 0)
(7.50321e-14 1.30044e-14 0)
(4.27229e-14 -5.64072e-14 0)
(2.36251e-14 -1.56273e-14 0)
(-3.20609e-14 -1.32558e-13 0)
(-1.56146e-14 -1.31949e-13 0)
(6.20283e-14 -1.02872e-13 0)
(5.82354e-14 -1.8918e-13 0)
(9.66439e-14 -1.75149e-13 0)
(3.65945e-16 -1.89395e-13 0)
(2.75185e-14 -1.50066e-13 0)
(1.024e-13 -1.09612e-13 0)
(-1.00229e-13 -1.51215e-13 0)
(-1.35012e-13 -6.26973e-14 0)
(-6.24158e-14 -6.54485e-14 0)
(-3.93259e-14 -6.51125e-14 0)
(-3.36085e-14 -1.29442e-13 0)
(-8.67838e-14 -1.5533e-13 0)
(-2.92699e-14 -2.3035e-13 0)
(1.17548e-13 -2.01931e-13 0)
(6.94279e-14 -1.74287e-13 0)
(1.86441e-14 -1.9237e-13 0)
(8.17233e-14 -6.89264e-14 0)
(-3.42721e-14 -9.21064e-14 0)
(1.69725e-14 -4.90993e-14 0)
(6.00377e-14 -2.23447e-14 0)
(-2.54844e-14 -7.89264e-14 0)
(-6.94552e-14 -1.07029e-13 0)
(-4.723e-14 -1.32962e-13 0)
(-7.82429e-14 -1.55737e-13 0)
(-8.49244e-14 -1.44662e-13 0)
(3.55916e-14 -1.82802e-13 0)
(1.3742e-13 -1.31042e-13 0)
(1.09072e-13 -5.74346e-14 0)
(7.77157e-14 3.90799e-14 0)
(6.68007e-14 9.82519e-15 0)
(7.07482e-14 -9.89619e-14 0)
(1.56474e-14 -2.2809e-13 0)
(-8.70847e-14 -2.69946e-13 0)
(-1.80235e-13 -2.48897e-13 0)
(-1.59429e-13 -1.57402e-13 0)
(-1.48543e-13 -2.99696e-14 0)
(-1.01328e-13 7.10607e-14 0)
(-1.01382e-14 8.58338e-14 0)
(1.03422e-14 7.48629e-14 0)
(1.10902e-13 -4.81481e-14 0)
(7.10813e-14 -5.82192e-14 0)
(4.8448e-14 -2.9409e-14 0)
(1.34028e-14 1.10564e-14 0)
(-7.06706e-15 3.64677e-14 0)
(-9.22521e-14 9.09995e-14 0)
(-1.37489e-13 1.21499e-13 0)
(-4.56392e-14 1.02965e-13 0)
(9.32739e-14 1.25863e-13 0)
(2.1837e-13 7.58657e-14 0)
(1.27153e-13 -2.77924e-14 0)
(5.74966e-14 6.39222e-15 0)
(-8.68998e-15 -5.39917e-14 0)
(-1.50319e-13 -3.14992e-16 0)
(-2.26042e-13 1.2779e-13 0)
(-1.55965e-13 6.17206e-14 0)
(-5.17488e-14 -7.28056e-14 0)
(3.56143e-14 -5.59855e-14 0)
(1.14299e-13 -1.31842e-13 0)
(1.68234e-13 -1.2135e-13 0)
(1.65987e-13 -2.0476e-13 0)
(7.56824e-14 -2.26691e-13 0)
(-8.11285e-14 -2.88521e-13 0)
(-1.3639e-13 -2.22057e-13 0)
(-1.16037e-13 -2.2372e-13 0)
(-1.63685e-13 -1.92616e-13 0)
(-5.63632e-14 -2.14066e-13 0)
(1.2596e-14 -2.24409e-13 0)
(-3.5177e-14 -2.53942e-13 0)
(-3.31835e-14 -1.97546e-13 0)
(4.15774e-14 -1.29563e-13 0)
(1.41435e-14 -6.9675e-14 0)
(1.4481e-14 -1.03889e-13 0)
(-3.15748e-14 -7.43788e-14 0)
(4.13137e-14 -1.70355e-13 0)
(7.85023e-14 -1.45486e-13 0)
(-5.52123e-14 -1.96737e-13 0)
(4.23334e-14 -1.70611e-13 0)
(1.02861e-13 -9.35238e-14 0)
(4.81197e-14 -6.64394e-14 0)
(-2.57284e-14 -6.79726e-14 0)
(-4.04444e-14 -1.35848e-13 0)
(1.27185e-13 -1.90964e-13 0)
(7.93874e-14 -2.21269e-13 0)
(3.47788e-14 -2.77789e-13 0)
(-8.86408e-14 -2.52701e-13 0)
(-1.03455e-13 -1.4892e-13 0)
(-1.38163e-13 -2.2214e-13 0)
(-2.37686e-13 -1.75636e-13 0)
(-5.98036e-14 -1.24189e-13 0)
(-6.35311e-14 -3.66515e-14 0)
(-1.07484e-13 -6.6937e-14 0)
(-4.25274e-14 -1.72919e-13 0)
(9.3304e-14 -1.72546e-13 0)
(1.45747e-13 -1.7251e-13 0)
(2.97291e-14 -2.23078e-13 0)
(-1.39675e-13 -2.00838e-13 0)
(-1.48543e-13 -1.29941e-13 0)
(-2.24904e-13 -1.36002e-13 0)
(-1.96555e-13 -2.30511e-13 0)
(1.89228e-14 -2.69043e-13 0)
(3.33782e-14 -3.17005e-13 0)
(8.36743e-14 -2.82865e-13 0)
(1.24886e-13 -2.07412e-13 0)
(6.39871e-14 -1.3358e-13 0)
(6.90978e-14 -1.68911e-13 0)
(6.25496e-14 -1.55874e-13 0)
(1.25692e-13 -1.50812e-13 0)
(1.98807e-13 -1.29475e-13 0)
(1.89769e-13 -1.32736e-13 0)
(1.23257e-13 -1.92445e-13 0)
(3.98075e-14 -1.45133e-13 0)
(2.97734e-16 -2.11489e-13 0)
(-4.95737e-14 -1.76194e-13 0)
(-2.38536e-14 -1.85016e-13 0)
(-6.79029e-14 -8.45245e-14 0)
(-9.23276e-14 -1.52259e-13 0)
(-1.38918e-13 -1.72475e-13 0)
(-2.75961e-13 -1.73317e-13 0)
(-1.27168e-13 -1.06623e-13 0)
(3.87365e-14 -6.83029e-14 0)
(1.2554e-13 -2.43463e-14 0)
(1.1082e-13 -1.06325e-13 0)
(1.31037e-13 -1.05088e-13 0)
(2.54986e-14 -2.59123e-13 0)
(-1.21448e-13 -2.00571e-13 0)
(-1.91925e-13 -2.74348e-13 0)
(-4.86275e-14 -1.515e-13 0)
(5.18958e-14 -1.50604e-13 0)
(-2.01626e-14 -6.58207e-14 0)
(-1.22535e-14 -9.59592e-14 0)
(1.50459e-13 -8.4649e-14 0)
(1.01405e-13 -6.27045e-14 0)
(4.02564e-14 -1.56911e-13 0)
(2.31615e-14 -1.01239e-13 0)
(-1.28524e-14 -4.48963e-14 0)
(-2.62351e-14 -8.30407e-14 0)
(-3.75878e-15 -1.22321e-13 0)
(-6.67759e-14 -1.16227e-13 0)
(-4.4891e-15 -1.83168e-13 0)
(-3.7254e-14 -1.11752e-13 0)
(-8.61571e-14 -2.02336e-13 0)
(-5.54304e-14 -2.0437e-13 0)
(-1.49131e-13 -1.88184e-13 0)
(-1.42189e-13 -1.95141e-13 0)
(4.94552e-15 -1.40774e-13 0)
(-7.62919e-14 -1.92617e-13 0)
(-1.04787e-13 -2.43813e-13 0)
(-2.65555e-14 -2.19846e-13 0)
(6.13874e-14 -2.38103e-13 0)
(6.16519e-14 -2.17184e-13 0)
(7.70308e-15 -1.87243e-13 0)
(-1.44172e-14 -1.69631e-13 0)
(4.20407e-14 -1.6563e-13 0)
(-1.04935e-14 -7.37809e-14 0)
(-2.63171e-15 -1.13702e-13 0)
(1.46087e-13 -8.38257e-14 0)
(1.17056e-13 -1.80307e-13 0)
(5.92977e-14 -1.51974e-13 0)
(-3.90692e-15 -1.07055e-13 0)
(5.76967e-15 -6.50058e-14 0)
(5.70708e-14 -1.63942e-14 0)
(1.0281e-13 -1.28714e-13 0)
(4.01374e-14 -8.88488e-14 0)
(3.80387e-14 -1.09211e-13 0)
(6.23057e-15 -3.97844e-14 0)
(-7.25566e-14 -3.41218e-14 0)
(2.73603e-14 -6.81688e-14 0)
(5.98365e-14 -8.73654e-14 0)
(1.83998e-14 -1.11612e-13 0)
(5.4776e-14 -1.22143e-13 0)
(-5.03064e-14 -1.68535e-13 0)
(2.7016e-14 -2.13224e-13 0)
(9.06382e-14 -2.54754e-13 0)
(-4.35764e-14 -3.29357e-13 0)
(-1.02983e-13 -1.91128e-13 0)
(-8.72479e-14 -1.2626e-13 0)
(-1.10244e-13 -1.68184e-13 0)
(-6.20583e-14 -1.97907e-13 0)
(-6.56269e-14 -1.0558e-13 0)
(-1.46368e-15 -1.50864e-13 0)
(1.70993e-13 -9.99421e-14 0)
(6.92633e-14 -1.23726e-13 0)
(5.44314e-14 -1.25399e-13 0)
(8.47258e-14 -1.55513e-13 0)
(-2.1311e-14 -6.5997e-14 0)
(2.22991e-14 -7.68437e-14 0)
(7.25678e-15 -1.94925e-13 0)
(-8.29147e-14 -1.84296e-13 0)
(-5.81615e-14 -2.31733e-13 0)
(-8.01305e-14 -1.78687e-13 0)
(-5.49224e-14 -2.38477e-13 0)
(-7.43491e-14 -2.00453e-13 0)
(1.07136e-13 -1.82074e-13 0)
(2.20904e-13 -1.14037e-13 0)
(1.30622e-13 -1.10055e-13 0)
(8.79626e-14 -1.61326e-13 0)
(3.72899e-14 -1.51047e-13 0)
(-5.26884e-14 -2.13081e-13 0)
(-9.53264e-14 -3.38645e-13 0)
(-1.06953e-13 -3.20171e-13 0)
(-7.97173e-14 -3.204e-13 0)
(-5.0051e-14 -2.69355e-13 0)
(-6.38696e-15 -1.9709e-13 0)
(-3.47003e-14 -5.51184e-14 0)
(5.74194e-15 -7.70126e-14 0)
(-7.37397e-15 1.03898e-14 0)
(1.92268e-14 -2.77253e-14 0)
(1.18131e-14 -6.25109e-14 0)
(3.38554e-14 -6.73383e-14 0)
(7.80606e-14 -6.0371e-14 0)
(6.24278e-14 2.97965e-14 0)
(-3.1358e-14 3.98746e-14 0)
(-1.43207e-13 6.71019e-14 0)
(-7.35666e-14 2.60213e-14 0)
(1.50292e-14 6.60381e-15 0)
(6.46948e-14 -1.03191e-13 0)
(1.29022e-13 -1.39362e-13 0)
(1.1177e-13 -1.38743e-13 0)
(2.76284e-14 -1.21118e-13 0)
(-8.52653e-14 -7.99496e-14 0)
(-1.58695e-13 -1.95509e-14 0)
(-2.18679e-13 -2.08731e-14 0)
(-9.18694e-14 1.21419e-14 0)
(-6.25385e-15 -8.63092e-16 0)
(4.68182e-14 -6.27209e-14 0)
(9.23272e-14 -1.46571e-13 0)
(9.1602e-14 -1.87159e-13 0)
(8.0219e-14 -2.86849e-13 0)
(1.14439e-14 -2.21338e-13 0)
(-8.81648e-14 -1.35242e-13 0)
(-1.22188e-13 -8.98603e-14 0)
(-1.79433e-13 -1.00754e-13 0)
(-1.09143e-13 -1.66913e-13 0)
(-6.0975e-14 -2.71828e-13 0)
(-5.85264e-14 -2.37572e-13 0)
(2.86072e-14 -1.85429e-13 0)
(1.2023e-13 -1.55334e-13 0)
(7.47489e-14 -1.07899e-13 0)
(9.88955e-15 -3.90732e-15 0)
(-3.11588e-14 -2.307e-14 0)
(-4.32519e-14 -3.70044e-14 0)
(2.6559e-14 -1.69218e-13 0)
(1.86598e-14 -1.14233e-13 0)
(7.98105e-14 -3.99252e-14 0)
(9.8576e-14 -1.10523e-13 0)
(5.34185e-14 -1.26258e-13 0)
(3.16388e-14 -1.04887e-13 0)
(-3.87152e-15 -7.89309e-14 0)
(5.74068e-14 -1.03237e-13 0)
(-4.75817e-14 -2.01936e-13 0)
(-2.1465e-14 -3.41639e-13 0)
(2.77932e-14 -2.73059e-13 0)
(-7.26641e-14 -2.11827e-13 0)
(-1.58267e-13 -2.3909e-13 0)
(-1.36494e-13 -1.28559e-13 0)
(-4.43932e-14 -3.42533e-14 0)
(-3.20816e-14 -6.59032e-14 0)
(-1.60323e-13 -6.34654e-15 0)
(-9.385e-14 -1.47506e-13 0)
(1.03777e-13 -1.7128e-13 0)
(1.22207e-13 -2.04169e-13 0)
(4.63355e-14 -1.49824e-13 0)
(-1.09397e-13 -1.17326e-13 0)
(-1.62878e-13 -5.85263e-14 0)
(-2.59808e-13 -1.15603e-13 0)
(-2.57508e-13 -1.06647e-13 0)
(-4.06875e-14 -1.65194e-13 0)
(4.8922e-14 -2.5448e-13 0)
(1.28259e-13 -2.24229e-13 0)
(1.87879e-13 -2.63895e-13 0)
(6.34371e-14 -2.61445e-13 0)
(6.11016e-14 -2.00117e-13 0)
(1.18224e-13 -1.2021e-13 0)
(1.03497e-13 -4.68897e-14 0)
(1.25745e-13 -3.57659e-14 0)
(9.87591e-14 -1.5118e-13 0)
(1.64031e-13 -2.20012e-13 0)
(5.36742e-14 -2.42035e-13 0)
(3.40932e-14 -1.87686e-13 0)
(-7.89001e-15 -9.84474e-14 0)
(1.57089e-14 -5.93058e-14 0)
(-3.98166e-14 -4.34603e-14 0)
(-1.38757e-13 -4.50114e-14 0)
(-1.42893e-13 -1.03499e-13 0)
(-2.20459e-13 -9.5878e-14 0)
(-8.41368e-14 1.47828e-14 0)
(8.49287e-14 7.78149e-14 0)
(6.72835e-14 1.29499e-14 0)
(2.19481e-14 -6.82771e-14 0)
(2.27345e-14 -2.63901e-13 0)
(-3.08534e-14 -2.98495e-13 0)
(-8.82843e-14 -2.21217e-13 0)
(-1.65327e-13 -1.4544e-13 0)
(1.01555e-14 -8.79199e-14 0)
(9.6057e-14 -3.48246e-14 0)
(1.24653e-14 1.87659e-14 0)
(-7.89612e-14 7.91575e-14 0)
(1.1177e-13 -2.78034e-14 0)
(5.86495e-14 -3.63467e-14 0)
(-2.40446e-15 -7.6062e-14 0)
(1.08327e-13 -3.3572e-14 0)
(6.9594e-15 -4.56835e-15 0)
(-5.51884e-14 -6.02754e-14 0)
(3.08963e-15 -8.54566e-14 0)
(-8.01632e-14 -1.05521e-13 0)
(-2.46558e-14 -1.31105e-13 0)
(-5.34365e-14 -1.7098e-13 0)
(-1.4253e-13 -1.19899e-13 0)
(-3.22299e-14 -1.83435e-13 0)
(-1.39847e-13 -2.08072e-13 0)
(-1.06523e-13 -1.87221e-13 0)
(2.09996e-15 -2.11679e-13 0)
(-1.08564e-13 -2.16721e-13 0)
(-7.63049e-14 -1.90516e-13 0)
(-4.51581e-14 -2.11242e-13 0)
(1.44653e-14 -1.36445e-13 0)
(1.62977e-13 -9.96772e-14 0)
(4.61554e-14 -1.56333e-14 0)
(-5.15398e-14 2.84694e-14 0)
(7.0005e-14 2.41817e-14 0)
(-1.86711e-14 -8.19588e-15 0)
(-8.46171e-15 -3.36076e-14 0)
(8.28052e-14 -3.60547e-14 0)
(8.76784e-14 -3.9426e-14 0)
(6.26413e-14 -4.79059e-14 0)
(3.83091e-14 -7.45433e-14 0)
(5.85529e-14 -2.26417e-14 0)
(-7.28937e-15 -5.70925e-14 0)
(3.71645e-14 -9.34692e-14 0)
(5.79477e-14 -1.05826e-13 0)
(8.4503e-14 -4.66408e-14 0)
(6.1397e-14 -6.19313e-14 0)
(-5.34531e-14 -6.9875e-14 0)
(-5.6316e-14 -1.20227e-13 0)
(-1.6725e-14 -2.19764e-13 0)
(1.13553e-14 -2.10663e-13 0)
(5.29916e-14 -1.68025e-13 0)
(-6.33063e-14 -1.3771e-13 0)
(-5.25131e-14 -2.03842e-13 0)
(-9.31631e-15 -3.56255e-13 0)
(-3.40312e-14 -2.57851e-13 0)
(5.31193e-14 -1.51625e-13 0)
(-8.7953e-14 -8.33433e-14 0)
(-1.39614e-13 -1.32133e-13 0)
(3.17395e-14 -1.08541e-13 0)
(-2.51946e-14 -7.69331e-14 0)
(-5.37468e-15 -5.0246e-14 0)
(1.2162e-13 -7.65797e-14 0)
(4.93644e-14 -9.57528e-14 0)
(3.81643e-14 -4.51739e-14 0)
(1.27109e-13 -8.43916e-14 0)
(4.27898e-14 -2.90929e-14 0)
(-8.31133e-14 -8.47472e-14 0)
(-2.05022e-14 -1.19081e-13 0)
(-4.98222e-14 -1.47512e-13 0)
(9.05899e-15 -1.75966e-13 0)
(-5.81744e-14 -1.27643e-13 0)
(-8.16489e-14 -7.93838e-14 0)
(-7.69498e-15 -3.40502e-14 0)
(1.48951e-13 3.99617e-15 0)
(1.67776e-13 -8.94669e-14 0)
(5.54611e-14 -2.06561e-13 0)
(4.2417e-14 -3.18847e-13 0)
(-2.72214e-14 -3.40095e-13 0)
(-8.64181e-14 -2.84406e-13 0)
(-5.43223e-14 -2.10899e-13 0)
(-6.60444e-14 -1.36341e-13 0)
(-1.12989e-13 -1.5486e-13 0)
(-8.76587e-14 -1.64664e-13 0)
(3.4666e-14 -2.66024e-13 0)
(8.19234e-14 -3.01304e-13 0)
(7.4067e-14 -2.2747e-13 0)
(6.06528e-14 -1.33967e-13 0)
(3.80025e-14 -1.92039e-14 0)
(5.09204e-14 -3.17591e-14 0)
(3.97136e-14 2.09022e-14 0)
(8.42474e-14 -2.3663e-14 0)
(5.50032e-14 -3.29415e-14 0)
(-9.97201e-14 -9.4454e-14 0)
(-1.30221e-13 -1.37281e-13 0)
(-1.02422e-13 -1.49349e-13 0)
(-7.08843e-14 -1.88922e-13 0)
(1.89016e-14 -2.19229e-13 0)
(1.2358e-13 -1.51627e-13 0)
(1.28172e-13 -1.24982e-13 0)
(5.48495e-14 -1.74859e-13 0)
(-9.61976e-14 -2.13707e-13 0)
(-1.93707e-13 -1.82346e-13 0)
(-1.45054e-13 -1.50893e-13 0)
(-1.10629e-14 -1.01979e-13 0)
(1.58454e-14 -1.79589e-13 0)
(-2.91674e-14 -1.34958e-13 0)
(7.12218e-14 -2.04535e-13 0)
(7.50918e-14 -1.56104e-13 0)
(3.15532e-14 -2.44707e-13 0)
(6.35447e-14 -2.28626e-13 0)
(-4.04275e-15 -2.58864e-13 0)
(-1.06285e-13 -1.36794e-13 0)
(-2.39593e-13 -1.7082e-13 0)
(-2.18238e-13 -1.1407e-13 0)
(-8.51317e-14 -2.20231e-13 0)
(5.47248e-14 -2.07808e-13 0)
(2.1959e-14 -2.0381e-13 0)
(7.12551e-14 -2.00756e-13 0)
(1.39749e-13 -2.12669e-13 0)
(8.35317e-14 -8.34679e-14 0)
(-9.71959e-15 -9.21824e-14 0)
(-8.17212e-14 2.62791e-14 0)
(-1.00903e-14 -2.2741e-14 0)
(1.23434e-13 -4.21407e-14 0)
(6.98283e-14 -1.21252e-13 0)
(1.79702e-14 -1.92959e-13 0)
(5.45427e-14 -1.93416e-13 0)
(6.10125e-15 -2.16755e-13 0)
(-3.57897e-14 -1.91078e-13 0)
(-3.94661e-14 -2.32231e-13 0)
(-9.20275e-14 -2.02266e-13 0)
(2.33084e-14 -1.77844e-13 0)
(7.70859e-14 -1.04162e-13 0)
(-4.89421e-14 -1.54426e-13 0)
(-1.07135e-13 -1.07947e-13 0)
(-6.51332e-14 -1.36285e-13 0)
(-3.53226e-14 -7.20697e-14 0)
(-6.81638e-14 -1.37952e-13 0)
(-1.75389e-13 -1.00056e-13 0)
(-1.50108e-13 -1.37385e-13 0)
(6.02461e-14 -1.69826e-13 0)
(1.63748e-13 -1.868e-13 0)
(1.12709e-13 -1.40057e-13 0)
(-8.74721e-14 -1.79797e-13 0)
(-1.45824e-13 -9.27037e-14 0)
(-2.5441e-13 -1.14431e-13 0)
(-2.84964e-13 4.55834e-15 0)
(-1.10237e-13 -1.87999e-14 0)
(5.15969e-14 -1.30517e-13 0)
(6.19496e-14 -1.57193e-13 0)
(8.81567e-14 -2.50744e-13 0)
(1.0681e-13 -2.43325e-13 0)
(1.56594e-13 -2.03931e-13 0)
(1.90205e-13 -1.30053e-13 0)
(1.73436e-13 -1.29301e-13 0)
(7.89692e-14 -8.02319e-14 0)
(4.6084e-14 -3.00461e-14 0)
(1.00329e-13 -8.81984e-14 0)
(8.19582e-14 -1.91861e-13 0)
(9.5438e-14 -1.25999e-13 0)
(6.49483e-14 -1.22942e-13 0)
(1.19635e-14 -1.93101e-14 0)
(-5.7536e-14 -1.28564e-13 0)
(-1.68675e-13 -9.75801e-14 0)
(-1.99151e-13 -1.9415e-13 0)
(-1.30063e-13 -1.70398e-13 0)
(-1.36222e-14 -3.7399e-14 0)
(3.74931e-14 -2.0283e-14 0)
(-5.06241e-15 -1.13875e-13 0)
(-1.50609e-13 -1.42353e-13 0)
(-8.92392e-14 -3.73859e-13 0)
(3.87009e-14 -3.53041e-13 0)
(4.07881e-14 -3.09151e-13 0)
(-1.71214e-14 -8.88651e-14 0)
(4.7176e-14 -5.99665e-15 0)
(8.9051e-14 -5.6149e-15 0)
(5.03624e-14 -1.01639e-13 0)
(-5.61068e-14 -2.16278e-16 0)
(3.34192e-15 2.31111e-14 0)
(6.41547e-14 -1.29856e-13 0)
(5.15896e-14 -7.41203e-15 0)
(9.33086e-14 5.10417e-15 0)
(-1.19788e-14 -4.21851e-14 0)
(-8.49914e-14 -2.99909e-14 0)
(-3.66086e-14 -1.44842e-13 0)
(-9.94816e-14 -2.07054e-13 0)
(-3.10951e-14 -1.69616e-13 0)
(1.89249e-15 -2.1338e-13 0)
(-1.44873e-13 -1.35982e-13 0)
(-9.84254e-14 -2.0519e-13 0)
(-1.54391e-13 -2.64644e-13 0)
(-1.451e-13 -2.00041e-13 0)
(-9.71068e-15 -2.35738e-13 0)
(-4.37041e-14 -2.50705e-13 0)
(-1.14589e-13 -1.48228e-13 0)
(-4.18655e-15 -2.20096e-13 0)
(1.40773e-13 -1.23109e-13 0)
(2.01407e-13 -1.06886e-13 0)
(1.08863e-13 -8.17986e-14 0)
(4.57795e-14 3.43068e-15 0)
(-6.08925e-15 1.35518e-15 0)
(-6.98796e-14 -1.23036e-13 0)
(-4.19449e-14 4.12776e-14 0)
(1.01783e-13 8.72866e-16 0)
(1.24745e-13 -1.78132e-14 0)
(4.58426e-14 -7.93216e-14 0)
(1.9824e-14 -9.41624e-14 0)
(5.14947e-15 -8.62696e-14 0)
(-1.22755e-14 -7.17163e-14 0)
(4.74841e-14 -1.71976e-14 0)
(1.08404e-13 -1.08051e-13 0)
(5.76233e-14 -3.67524e-14 0)
(-4.03257e-14 -1.26154e-13 0)
(-1.38944e-13 -1.10507e-13 0)
(-1.09115e-13 -2.33842e-13 0)
(-5.52079e-14 -2.79862e-13 0)
(3.06016e-14 -2.08918e-13 0)
(8.56395e-14 -1.62829e-13 0)
(-4.69652e-14 -1.81896e-13 0)
(-9.58207e-14 -1.23899e-13 0)
(6.43295e-15 -1.89487e-13 0)
(8.7037e-14 -9.76712e-14 0)
(8.90316e-14 -9.75177e-14 0)
(-7.05196e-14 -1.59155e-13 0)
(-1.45626e-13 -1.34574e-13 0)
(-2.31617e-14 -1.75341e-13 0)
(-2.23275e-14 -1.9494e-13 0)
(-5.58141e-15 -3.83169e-14 0)
(1.22833e-13 -7.0504e-14 0)
(9.16539e-14 -8.15106e-14 0)
(6.41361e-14 -5.90984e-14 0)
(8.07091e-14 -8.32905e-14 0)
(-6.89328e-15 -1.13898e-13 0)
(-4.52532e-14 -1.27865e-13 0)
(-1.34726e-14 -7.39021e-14 0)
(-7.83914e-14 -1.72048e-13 0)
(1.00992e-13 -1.80066e-13 0)
(3.70527e-14 -1.04036e-13 0)
(-1.145e-14 -4.1804e-14 0)
(1.97458e-14 -3.48405e-14 0)
(8.96234e-14 -2.11114e-14 0)
(4.65293e-14 -1.06348e-13 0)
(-7.36081e-14 -1.81749e-13 0)
(-7.21944e-14 -2.84272e-13 0)
(3.40332e-14 -3.38787e-13 0)
(7.87366e-14 -2.03238e-13 0)
(3.16222e-14 -4.49792e-14 0)
(-1.82639e-15 -1.55836e-14 0)
(-9.5574e-14 2.88926e-14 0)
(-1.64976e-13 -2.14612e-15 0)
(-8.53252e-14 -1.17785e-13 0)
(2.13981e-15 -2.38895e-13 0)
(1.55566e-13 -1.87576e-13 0)
(2.03817e-13 -1.69459e-13 0)
(1.31017e-13 -5.16107e-14 0)
(7.4592e-14 1.19858e-14 0)
(2.59642e-14 5.47075e-15 0)
(-2.14343e-14 -8.80151e-14 0)
(-7.98674e-15 -1.88124e-13 0)
(-8.96631e-14 -2.47668e-13 0)
(-1.47405e-13 -2.4954e-13 0)
(-1.4676e-13 -2.02388e-13 0)
(-5.00778e-14 -1.51978e-13 0)
(6.0863e-14 -8.70433e-14 0)
(1.80931e-13 -1.51521e-13 0)
(9.02149e-14 -9.51008e-14 0)
(-1.21269e-14 -1.82533e-13 0)
(-6.87491e-14 -1.9771e-13 0)
(-1.22549e-13 -2.83434e-13 0)
(-1.20283e-13 -2.39087e-13 0)
(-6.7579e-14 -2.27184e-13 0)
(-3.66776e-14 -2.96817e-13 0)
(-1.4554e-14 -2.56239e-13 0)
(6.49475e-14 -2.00202e-13 0)
(7.02213e-14 -1.9422e-13 0)
(1.44304e-14 -1.57752e-13 0)
(2.40436e-14 -1.39854e-13 0)
(3.46598e-14 -1.65882e-13 0)
(-6.83022e-14 -1.76783e-13 0)
(-1.64616e-13 -1.1186e-13 0)
(-1.66989e-13 -3.70032e-14 0)
(-1.52805e-13 -4.51021e-14 0)
(-4.89446e-14 -1.02278e-13 0)
(-1.63244e-14 -2.05537e-13 0)
(1.08041e-13 -2.01389e-13 0)
(2.01045e-13 -2.58769e-13 0)
(1.26382e-13 -2.08315e-13 0)
(6.78681e-14 -1.29535e-13 0)
(1.37309e-14 -6.99568e-14 0)
(-3.34666e-14 -3.01135e-14 0)
(2.58814e-15 -7.45989e-14 0)
(6.08379e-15 -1.34054e-13 0)
(2.02828e-14 -1.64687e-13 0)
(4.31217e-14 -1.7638e-13 0)
(3.03377e-15 -1.81608e-13 0)
(-1.16406e-14 -2.22662e-13 0)
(3.32844e-14 -2.03953e-13 0)
(-3.41487e-14 -1.5139e-13 0)
(2.43451e-14 -3.70232e-14 0)
(4.59414e-14 -1.45537e-13 0)
(-6.09149e-14 -1.70158e-13 0)
(-1.11356e-13 -1.75522e-13 0)
(-9.03214e-14 -1.47696e-13 0)
(-6.85292e-14 -1.52318e-13 0)
(-9.00625e-14 -1.69225e-13 0)
(-1.00449e-13 -1.58086e-13 0)
(-1.26872e-13 -4.28611e-14 0)
(4.03954e-14 -9.78338e-14 0)
(1.25513e-13 -1.77807e-13 0)
(7.59015e-14 -1.81657e-13 0)
(-1.90706e-14 -1.64591e-13 0)
(-1.22024e-13 -1.80516e-13 0)
(-2.05724e-13 -1.3643e-13 0)
(-1.8154e-13 -4.24794e-14 0)
(-1.37338e-13 3.70998e-14 0)
(-4.41887e-14 -7.77544e-14 0)
(5.98607e-14 -1.02656e-13 0)
(1.12094e-13 -1.41797e-13 0)
(8.23693e-14 -1.08849e-13 0)
(1.23963e-13 -1.88043e-13 0)
(1.86203e-13 -2.32588e-13 0)
(1.7765e-13 -2.07635e-13 0)
(1.42225e-13 -1.35145e-13 0)
(9.08028e-14 -1.11743e-13 0)
(4.33103e-14 -1.34571e-13 0)
(1.62327e-14 -9.16839e-14 0)
(6.02499e-14 -2.5264e-14 0)
(1.03913e-13 -2.56914e-14 0)
(2.45351e-14 -4.1225e-14 0)
(-9.3999e-14 -1.56092e-13 0)
(-1.66209e-13 -1.9021e-13 0)
(-2.24006e-13 -1.54196e-13 0)
(-3.40396e-14 -1.33165e-13 0)
(7.40258e-14 -1.17631e-13 0)
(2.92619e-14 -1.86783e-13 0)
(-8.13654e-14 -2.67553e-13 0)
(-2.27993e-13 -2.86029e-13 0)
(-2.05532e-13 -3.25237e-13 0)
(2.6699e-14 -3.4751e-13 0)
(1.96806e-13 -3.30515e-13 0)
(1.47752e-13 -1.85393e-13 0)
(5.63091e-14 -1.4806e-13 0)
(5.56321e-14 -2.16182e-13 0)
(2.03001e-14 -3.00364e-13 0)
(4.16775e-14 -1.98685e-13 0)
(-1.14985e-14 -1.01321e-13 0)
(4.36434e-14 -7.54857e-14 0)
(9.72621e-14 -7.87495e-14 0)
(4.84982e-14 -1.16075e-13 0)
(-2.41962e-14 -1.34954e-13 0)
(-1.2146e-13 -1.49357e-13 0)
(-9.40697e-14 -8.3114e-14 0)
(-6.13484e-14 -7.7333e-14 0)
(-4.89202e-14 -4.96006e-14 0)
(2.85047e-14 -1.36624e-13 0)
(-1.26982e-13 -1.55122e-13 0)
(-1.98646e-13 -1.0829e-13 0)
(-1.13981e-13 -1.72171e-13 0)
(-9.49645e-14 -1.19457e-13 0)
(-3.77491e-14 -6.33511e-14 0)
(-4.99931e-15 -1.23664e-13 0)
(-1.02396e-13 -1.18407e-13 0)
(-3.77424e-14 -1.2253e-13 0)
(1.45734e-13 -1.75984e-13 0)
(2.40319e-13 -2.36829e-13 0)
(1.69793e-13 -2.68733e-13 0)
(5.17049e-14 -2.6384e-13 0)
(-4.05583e-14 -2.04153e-13 0)
(-4.00303e-15 -9.12406e-14 0)
(6.1319e-14 -1.69008e-14 0)
(2.51208e-14 -5.38089e-14 0)
(5.01726e-14 -1.57297e-13 0)
(1.14297e-15 -2.00789e-13 0)
(4.28799e-14 -2.1585e-13 0)
(6.64511e-14 -2.12663e-13 0)
(6.04584e-14 -1.57012e-13 0)
(-7.61967e-15 -5.79944e-14 0)
(3.61759e-14 -1.33746e-13 0)
(7.49956e-14 -1.75446e-13 0)
(-2.4106e-14 -1.77485e-13 0)
(-1.94666e-13 -1.7469e-13 0)
(-1.81079e-13 -1.97485e-13 0)
(-1.1261e-14 -2.13904e-13 0)
(8.02681e-14 -2.28681e-13 0)
(5.43734e-14 -2.48573e-13 0)
(4.33303e-15 -2.22066e-13 0)
(-7.42595e-14 -1.59017e-13 0)
(-8.24326e-15 -1.15367e-13 0)
(8.64954e-14 -1.3897e-13 0)
(1.15347e-14 -2.22653e-13 0)
(-1.11104e-13 -3.31334e-13 0)
(-2.11242e-13 -3.03812e-13 0)
(-6.89698e-14 -2.89528e-13 0)
(1.46387e-13 -2.75816e-13 0)
(1.24542e-13 -1.08181e-13 0)
(3.99346e-14 -1.14706e-13 0)
(7.52439e-14 -1.42528e-13 0)
(6.46997e-14 -1.88237e-13 0)
(4.33006e-14 -2.27142e-13 0)
(3.01776e-14 -1.95433e-13 0)
(1.20072e-14 -1.43301e-13 0)
(-4.28295e-14 -1.61683e-13 0)
(-7.47752e-14 -1.51669e-13 0)
(2.62907e-13 -2.13325e-13 0)
(1.18776e-13 -1.82674e-13 0)
(4.33897e-14 -1.13385e-13 0)