/*--------------------------------*- C++ -*----------------------------------*\
  =========                 |
  \\      /  F ield         | OpenFOAM: The Open Source CFD Toolbox
   \\    /   O peration     | Website:  https://openfoam.org
    \\  /    A nd           | Version:  13
     \\/     M anipulation  |
\*---------------------------------------------------------------------------*/
FoamFile
{
    format      ascii;
    class       volVectorField;
    location    "0.0013";
    object      U;
}
// * * * * * * * * * * * * * * * * * * * * * * * * * * * * * * * * * * * * * //

dimensions      [0 1 -1 0 0 0 0];

internalField   nonuniform List<vector> 
33333
(
(-7.32655e-14 1.62868e-13 0)
(7.20803e-17 1.92496e-13 0)
(5.74011e-14 1.82547e-13 0)
(-5.28159e-15 1.30777e-13 0)
(-1.45517e-14 9.58962e-14 0)
(5.17633e-15 4.13866e-14 0)
(1.27697e-13 6.06824e-14 0)
(1.00319e-13 1.12715e-13 0)
(4.2997e-14 1.01229e-13 0)
(1.87467e-13 7.65186e-14 0)
(1.57138e-13 -3.37873e-14 0)
(1.7002e-14 6.43609e-14 0)
(-4.01036e-14 7.45184e-14 0)
(-1.09971e-13 1.30216e-13 0)
(7.29748e-14 1.23793e-13 0)
(2.31574e-14 3.66361e-14 0)
(-1.17885e-13 6.49938e-14 0)
(8.86738e-14 6.52188e-14 0)
(1.47068e-13 -1.21345e-13 0)
(-1.70846e-14 -9.01984e-14 0)
(-3.45026e-14 2.6142e-14 0)
(6.46746e-14 -3.00567e-14 0)
(-1.89947e-13 3.51266e-14 0)
(-2.70012e-13 1.73891e-13 0)
(-2.12615e-13 2.12311e-13 0)
(-1.74015e-13 1.95328e-13 0)
(-8.97197e-14 1.04661e-13 0)
(1.04954e-13 2.00917e-14 0)
(1.15712e-13 -7.26757e-14 0)
(1.07845e-13 -2.69431e-14 0)
(1.504e-13 -1.13305e-13 0)
(-8.52314e-14 1.06712e-14 0)
(-1.22189e-13 1.73114e-13 0)
(-3.92941e-14 2.35603e-13 0)
(-7.20537e-15 2.09796e-13 0)
(3.64997e-14 1.35301e-13 0)
(2.09531e-13 6.11101e-14 0)
(2.70183e-13 -2.85515e-14 0)
(1.47534e-13 5.06681e-14 0)
(4.76354e-14 8.3553e-15 0)
(-9.58576e-14 -4.60377e-14 0)
(-4.23156e-14 -4.25203e-14 0)
(8.20835e-14 -6.98089e-14 0)
(1.29647e-13 -7.54836e-14 0)
(5.85028e-14 -7.33085e-14 0)
(6.70797e-14 -2.2668e-14 0)
(5.80734e-14 -7.35114e-14 0)
(-5.6908e-14 2.34891e-14 0)
(3.04886e-14 7.41094e-14 0)
(6.99778e-14 6.06095e-14 0)
(-1.51017e-13 6.3866e-14 0)
(-1.18699e-13 9.70306e-14 0)
(4.19676e-14 1.10562e-14 0)
(1.55964e-13 1.69254e-15 0)
(2.0251e-13 7.7572e-14 0)
(1.28808e-13 1.25344e-14 0)
(-1.05776e-13 -3.99654e-15 0)
(-1.68992e-13 -2.63361e-14 0)
(-1.39282e-13 -5.32127e-14 0)
(-1.43687e-13 -1.95849e-14 0)
(-1.52627e-13 -8.16797e-15 0)
(-1.36841e-14 -9.75912e-15 0)
(5.59516e-14 -2.69382e-14 0)
(1.70115e-14 1.90842e-14 0)
(-2.69151e-14 -5.89542e-14 0)
(-6.97314e-14 -6.13839e-14 0)
(2.07893e-14 -3.24364e-14 0)
(5.87586e-14 -2.15933e-14 0)
(1.5156e-13 -1.31864e-13 0)
(1.22389e-13 -8.48041e-14 0)
(1.73133e-13 3.73111e-14 0)
(2.86815e-13 -1.92348e-14 0)
(1.20858e-13 7.99277e-15 0)
(-4.13299e-14 3.02224e-14 0)
(-2.02019e-14 -7.03458e-14 0)
(-1.0202e-13 2.18268e-16 0)
(-2.24397e-13 9.48783e-14 0)
(-4.17036e-14 1.89773e-14 0)
(4.36535e-14 -1.20918e-13 0)
(-8.41991e-14 -1.13413e-13 0)
(-9.9902e-14 -8.48754e-14 0)
(-2.32253e-13 2.10829e-14 0)
(-2.87612e-13 9.80373e-14 0)
(-1.6686e-13 1.00489e-13 0)
(-3.10781e-14 1.59604e-13 0)
(1.1382e-13 6.77157e-14 0)
(1.44582e-13 -2.17751e-14 0)
(1.07149e-13 -7.10088e-14 0)
(4.43359e-14 -1.92693e-14 0)
(-3.41786e-14 -6.64921e-14 0)
(-6.77429e-14 -2.35866e-14 0)
(-2.1586e-14 2.20041e-14 0)
(-5.02067e-14 4.1454e-14 0)
(1.92435e-14 1.94942e-15 0)
(1.14871e-13 2.94889e-14 0)
(1.8751e-13 1.43898e-13 0)
(2.54728e-13 9.76061e-14 0)
(1.33843e-13 3.15804e-14 0)
(-7.59753e-15 -7.0775e-14 0)
(-4.92543e-14 -5.13055e-14 0)
(-2.07355e-13 -6.99628e-14 0)
(-1.71991e-13 -4.3744e-14 0)
(9.26211e-15 -1.30111e-13 0)
(-9.24601e-14 -1.20785e-13 0)
(1.84883e-14 -1.35324e-14 0)
(8.93006e-14 -1.00826e-13 0)
(-7.26675e-14 -9.40576e-14 0)
(-4.6012e-14 -3.55761e-14 0)
(-2.20707e-14 3.03834e-14 0)
(4.85402e-14 4.58213e-14 0)
(1.78323e-13 4.46202e-14 0)
(2.83507e-13 6.2116e-14 0)
(2.54886e-13 -4.86528e-14 0)
(2.54562e-13 3.56547e-15 0)
(1.52457e-13 -4.34603e-14 0)
(-3.44316e-14 -7.59971e-14 0)
(-7.90171e-14 -4.84282e-14 0)
(-2.30086e-14 -7.26425e-14 0)
(6.32577e-14 1.76398e-14 0)
(3.0851e-14 -5.49994e-14 0)
(6.80122e-14 -1.20748e-14 0)
(1.03149e-13 -8.63799e-14 0)
(-7.82748e-14 -3.71782e-14 0)
(-8.84971e-14 -6.58035e-15 0)
(-2.81654e-14 -1.22383e-14 0)
(-1.85897e-13 -2.71044e-14 0)
(-2.20087e-13 5.06303e-14 0)
(-8.81537e-14 6.7567e-15 0)
(-1.15622e-13 -4.9482e-14 0)
(-8.50456e-14 1.92153e-14 0)
(-1.62404e-14 -7.433e-14 0)
(-1.02524e-13 -6.19068e-14 0)
(-2.41228e-13 -4.74062e-14 0)
(-2.68808e-13 -7.97635e-14 0)
(-2.90309e-13 1.0533e-14 0)
(-1.89638e-13 1.06793e-13 0)
(-7.41424e-14 1.63542e-13 0)
(1.85577e-15 8.36353e-14 0)
(1.48468e-13 6.58848e-14 0)
(1.91951e-13 -5.1399e-14 0)
(-5.5287e-14 -1.54439e-14 0)
(-7.0114e-14 9.02237e-14 0)
(4.81838e-14 7.89698e-14 0)
(1.7929e-13 2.74868e-14 0)
(2.35176e-13 4.45124e-14 0)
(2.7104e-13 9.88374e-14 0)
(3.21525e-13 8.55128e-15 0)
(1.44916e-13 -4.04203e-14 0)
(2.76083e-14 -5.37262e-14 0)
(-6.12101e-14 -6.57052e-14 0)
(-2.65813e-13 -5.27053e-14 0)
(-1.79244e-13 1.55833e-15 0)
(4.77518e-14 -1.74776e-14 0)
(-4.59147e-14 -4.71423e-14 0)
(-9.15977e-15 4.93834e-14 0)
(1.39619e-13 6.38739e-15 0)
(2.42481e-14 6.98051e-14 0)
(-4.44495e-14 6.78733e-14 0)
(-1.22087e-13 3.05098e-15 0)
(-1.83731e-13 3.43691e-14 0)
(-1.17642e-13 7.52312e-14 0)
(4.43451e-14 1.04855e-13 0)
(-7.19073e-14 2.05886e-14 0)
(-1.12574e-13 5.69353e-14 0)
(-6.45083e-14 -2.71488e-14 0)
(6.10465e-15 1.28655e-14 0)
(6.73076e-14 3.23828e-14 0)
(4.54188e-14 9.64378e-14 0)
(2.13865e-15 8.16708e-14 0)
(-8.08935e-15 1.69057e-14 0)
(-9.54387e-14 -7.69647e-15 0)
(-2.10827e-14 1.17263e-14 0)
(1.10804e-13 2.89473e-14 0)
(1.41304e-13 -5.51434e-14 0)
(1.09158e-13 -8.02321e-14 0)
(1.34119e-13 -9.1116e-14 0)
(7.95435e-14 -1.29385e-13 0)
(2.43809e-14 -9.2314e-14 0)
(-6.2289e-14 -1.56186e-13 0)
(-9.26365e-14 -1.1307e-13 0)
(3.89749e-14 -6.64989e-14 0)
(1.08852e-13 -1.25485e-13 0)
(4.11423e-14 -7.40858e-15 0)
(-2.31726e-14 -1.34941e-14 0)
(-2.10012e-14 -7.3301e-14 0)
(6.00321e-14 -1.01017e-13 0)
(-1.92949e-14 -5.48945e-14 0)
(-8.76334e-15 -1.24987e-13 0)
(-8.97016e-14 -1.41109e-13 0)
(-2.18622e-13 -7.62696e-14 0)
(-2.1024e-13 -9.6171e-14 0)
(-1.80884e-13 -7.75457e-14 0)
(-1.15053e-13 -4.09143e-14 0)
(-2.64307e-14 -1.025e-13 0)
(9.62852e-14 -1.71465e-13 0)
(9.01731e-14 -1.11455e-13 0)
(1.44607e-13 -1.5242e-13 0)
(5.32127e-14 -1.01189e-13 0)
(-6.00914e-14 -3.23119e-14 0)
(-2.84912e-14 -7.41972e-15 0)
(-1.35686e-14 -6.43346e-14 0)
(1.40521e-14 -8.61289e-14 0)
(1.55903e-13 -1.21423e-13 0)
(2.42055e-13 -1.4564e-13 0)
(2.21581e-13 -1.77269e-13 0)
(5.66861e-14 -1.65131e-13 0)
(-5.91171e-14 -2.8753e-13 0)
(-6.96789e-14 -2.85979e-13 0)
(6.91524e-14 -2.27485e-13 0)
(1.01826e-13 -1.30817e-13 0)
(3.9999e-14 -1.7536e-13 0)
(5.52747e-14 -1.29279e-13 0)
(8.26256e-14 -1.77437e-13 0)
(7.64363e-14 -6.23156e-14 0)
(6.79476e-14 -3.22304e-14 0)
(4.53468e-14 -1.01443e-13 0)
(-1.2611e-13 -5.90048e-14 0)
(-1.70769e-13 7.26559e-14 0)
(-5.85175e-14 -2.24396e-14 0)
(1.57813e-13 -7.30426e-14 0)
(2.21715e-13 -6.74854e-14 0)
(9.76696e-14 -1.90329e-13 0)
(-9.26761e-14 -1.70052e-13 0)
(-1.21811e-13 -1.38617e-13 0)
(-1.0704e-13 -1.97295e-13 0)
(-1.63404e-13 -1.84769e-13 0)
(-2.09197e-13 -1.7607e-13 0)
(-8.23466e-14 -1.31175e-13 0)
(1.05456e-13 -1.41385e-13 0)
(3.68472e-14 -1.44746e-13 0)
(-4.83131e-14 -1.45392e-13 0)
(2.08988e-14 -1.73369e-13 0)
(9.1403e-14 -1.56106e-13 0)
(1.18384e-14 -1.25398e-13 0)
(8.11357e-14 -5.98248e-14 0)
(1.99747e-13 -1.24922e-13 0)
(1.72136e-13 -2.16335e-14 0)
(2.26461e-13 -6.28758e-14 0)
(1.79481e-13 -1.34313e-13 0)
(-5.63005e-14 -1.43813e-13 0)
(-5.2842e-14 -2.44934e-13 0)
(1.25213e-14 -2.11405e-13 0)
(-1.04331e-13 -8.22892e-14 0)
(-1.24935e-13 -5.95039e-14 0)
(-6.99266e-14 -1.61101e-13 0)
(-1.3533e-13 -2.08803e-13 0)
(-1.16045e-13 -2.23584e-13 0)
(-1.81508e-13 -1.35999e-13 0)
(-2.30297e-13 -5.03695e-14 0)
(-1.41983e-13 -6.9733e-14 0)
(-1.97923e-14 -2.18622e-14 0)
(5.73092e-14 -1.80059e-14 0)
(5.29457e-14 -1.05408e-13 0)
(1.1878e-13 -1.01356e-13 0)
(3.94281e-14 -1.52251e-13 0)
(-6.17841e-14 -1.57923e-13 0)
(3.42652e-14 -1.04604e-13 0)
(2.12281e-14 -8.15913e-14 0)
(-8.34471e-14 -6.06347e-14 0)
(-3.91833e-14 2.51144e-14 0)
(1.23394e-13 -6.40632e-14 0)
(1.94552e-13 -1.8426e-14 0)
(2.11786e-13 -1.57097e-13 0)
(8.82269e-14 -1.95291e-13 0)
(3.54546e-15 -2.25276e-13 0)
(2.66495e-14 -2.51764e-13 0)
(-1.97791e-13 -1.98228e-13 0)
(-2.52773e-13 -1.16621e-13 0)
(-8.39841e-14 -1.89864e-13 0)
(2.67591e-14 -1.8402e-13 0)
(2.89103e-14 -6.23105e-14 0)
(4.96738e-15 -2.30844e-13 0)
(1.60239e-14 -1.65698e-13 0)
(5.75088e-14 -6.74849e-14 0)
(3.04615e-14 -1.05892e-13 0)
(-2.22604e-14 -1.40117e-13 0)
(1.21389e-13 -7.92258e-14 0)
(1.43842e-13 -1.34622e-13 0)
(1.97801e-13 -2.22562e-13 0)
(2.62092e-13 -2.39538e-13 0)
(1.41659e-13 -2.68314e-13 0)
(4.35972e-14 -3.84092e-13 0)
(-4.13975e-14 -2.92265e-13 0)
(5.84735e-14 -2.10148e-13 0)
(6.37044e-14 -7.26453e-14 0)
(-3.11135e-14 -1.68856e-13 0)
(-1.44934e-15 -1.15682e-13 0)
(2.69117e-14 -2.33927e-13 0)
(-2.30877e-14 -1.88544e-13 0)
(-7.89044e-14 -1.3352e-13 0)
(-4.0049e-14 -1.57192e-13 0)
(-1.33692e-13 -1.83153e-13 0)
(-1.87725e-13 -1.2462e-13 0)
(-2.05269e-13 -1.52892e-13 0)
(-1.34389e-13 -1.62695e-13 0)
(-1.21607e-13 -1.12119e-13 0)
(-7.91515e-14 -2.18533e-13 0)
(-1.10853e-14 -2.64868e-13 0)
(-1.86614e-13 -2.43358e-13 0)
(-2.42556e-13 -3.14999e-13 0)
(-2.03984e-13 -2.30088e-13 0)
(-1.43438e-13 -6.40618e-14 0)
(-1.02045e-13 -1.68563e-14 0)
(-1.84917e-14 -2.60701e-14 0)
(7.82966e-14 -2.97263e-15 0)
(1.51519e-13 -9.9432e-14 0)
(6.67697e-14 -1.39879e-13 0)
(-3.08978e-14 -2.02843e-14 0)
(2.45809e-14 -1.51573e-14 0)
(1.74366e-13 2.23007e-14 0)
(2.50187e-13 -9.67173e-14 0)
(2.38681e-13 -8.09031e-14 0)
(2.02559e-13 -1.99245e-13 0)
(1.38244e-13 -2.38926e-13 0)
(9.39762e-14 -2.34927e-13 0)
(-3.53478e-14 -2.69494e-13 0)
(-2.23386e-13 -2.32793e-13 0)
(-1.90862e-13 -4.65391e-14 0)
(-2.82731e-14 -8.83011e-14 0)
(-1.93223e-14 -1.11068e-13 0)
(9.08539e-15 -4.8735e-14 0)
(1.14961e-13 -8.58734e-14 0)
(1.60729e-13 -7.74805e-14 0)
(-3.07305e-14 -1.75481e-14 0)
(-1.15099e-13 -1.05255e-13 0)
(-1.94743e-13 -1.04092e-13 0)
(-1.39053e-13 -1.40936e-13 0)
(-3.164e-14 -1.25527e-13 0)
(-7.40056e-14 -1.53064e-13 0)
(-1.0878e-13 -1.24271e-13 0)
(-2.98507e-14 -1.13801e-13 0)
(6.49119e-14 -1.14233e-13 0)
(9.72941e-14 -1.22598e-13 0)
(6.36671e-14 -1.39232e-13 0)
(-2.20947e-14 -1.36468e-13 0)
(-1.87558e-14 -1.11743e-13 0)
(-1.56422e-14 -1.08321e-13 0)
(1.81465e-14 -7.59343e-14 0)
(5.29231e-14 -6.79638e-15 0)
(4.93431e-14 -1.94018e-13 0)
(5.54914e-14 -2.16855e-13 0)
(1.53597e-13 -2.13585e-13 0)
(1.1287e-13 -2.07439e-13 0)
(-2.67111e-14 -1.88935e-13 0)
(-1.59985e-13 -1.31323e-13 0)
(-2.27394e-14 -1.92981e-13 0)
(1.10239e-13 -1.63467e-13 0)
(1.49354e-13 -1.78086e-13 0)
(9.15614e-14 -1.9802e-13 0)
(4.39795e-14 -1.5729e-13 0)
(6.79605e-14 -1.07993e-13 0)
(3.57662e-14 -1.24849e-13 0)
(-2.21908e-14 -1.68031e-13 0)
(-1.0359e-13 -1.14505e-13 0)
(-2.20083e-13 -2.13349e-13 0)
(-2.40732e-13 -2.17112e-13 0)
(-1.59673e-13 -2.51391e-13 0)
(-7.6993e-14 -2.57882e-13 0)
(-8.78736e-14 -1.15122e-13 0)
(4.56368e-16 -1.11813e-14 0)
(1.54363e-13 -4.51539e-14 0)
(1.2069e-13 -1.48792e-13 0)
(9.14059e-14 -1.27887e-13 0)
(-1.23791e-14 -2.24443e-13 0)
(-6.07944e-14 -1.92622e-13 0)
(-7.31967e-14 -2.24938e-13 0)
(-5.02163e-14 -1.80648e-13 0)
(7.70153e-14 -1.67243e-13 0)
(2.4764e-13 -1.12424e-13 0)
(2.08187e-13 -1.06443e-13 0)
(1.13266e-13 -1.83179e-13 0)
(-4.63362e-14 -2.25845e-13 0)
(-1.36613e-13 -3.30123e-13 0)
(3.699e-14 -3.33718e-13 0)
(1.6527e-13 -2.43917e-13 0)
(1.42991e-13 -1.79713e-13 0)
(9.62547e-14 -5.10649e-14 0)
(9.80047e-14 -9.59238e-14 0)
(5.93311e-14 -1.18393e-13 0)
(6.15146e-14 -2.3191e-13 0)
(6.00529e-14 -2.45333e-13 0)
(5.41246e-14 -2.29418e-13 0)
(4.19521e-15 -8.29958e-14 0)
(-1.3733e-13 7.64554e-15 0)
(-4.81891e-14 7.77287e-14 0)
(1.28722e-13 1.0151e-13 0)
(5.15646e-14 -5.30304e-14 0)
(2.42236e-14 -1.68629e-13 0)
(-3.17907e-14 -2.55829e-13 0)
(-1.35419e-13 -2.46218e-13 0)
(-1.48263e-13 -1.82678e-13 0)
(-1.43141e-13 -1.87146e-13 0)
(-1.44799e-13 -1.21556e-13 0)
(-2.59322e-14 2.13329e-14 0)
(-7.61658e-15 -2.43638e-15 0)
(4.84208e-14 -8.41388e-14 0)
(-1.28379e-14 -2.80151e-14 0)
(1.13847e-14 -7.92855e-14 0)
(6.89214e-14 -1.72054e-13 0)
(1.15843e-13 -1.59482e-13 0)
(1.59274e-13 -2.84332e-14 0)
(1.86649e-13 -2.78817e-14 0)
(1.81193e-13 -1.18266e-13 0)
(1.51359e-13 -3.89209e-14 0)
(6.17402e-14 -1.24304e-13 0)
(-1.42691e-13 -2.06505e-13 0)
(-7.22149e-14 -2.06809e-13 0)
(7.81036e-14 -2.7522e-13 0)
(-1.8038e-14 -2.39689e-13 0)
(-2.73627e-14 -1.61215e-13 0)
(-6.08583e-14 -1.29427e-13 0)
(-1.46082e-13 -1.81193e-13 0)
(-1.50378e-13 -1.55074e-13 0)
(-1.08267e-13 -1.51006e-13 0)
(-1.77076e-13 -5.11596e-14 0)
(-1.94589e-13 -9.99658e-15 0)
(-6.10548e-15 -2.97832e-14 0)
(8.80142e-14 -7.22006e-14 0)
(1.18571e-13 1.36979e-14 0)
(7.27503e-14 4.51183e-14 0)
(-4.6784e-15 -2.88655e-14 0)
(1.1917e-14 1.42296e-14 0)
(2.65076e-14 -6.2538e-14 0)
(-3.3292e-14 -1.42605e-13 0)
(1.81821e-14 -1.13336e-13 0)
(1.60201e-14 -3.66987e-14 0)
(7.69945e-14 5.89315e-15 0)
(3.43605e-14 -1.35727e-13 0)
(7.79678e-14 -2.49128e-13 0)
(1.48655e-13 -2.71577e-13 0)
(1.71586e-15 -2.08878e-13 0)
(-3.07354e-14 -2.66496e-13 0)
(-3.83102e-14 -1.82861e-13 0)
(-2.05734e-13 -7.50497e-14 0)
(-6.85492e-14 -1.3807e-14 0)
(9.06739e-14 -4.62416e-15 0)
(-1.87103e-14 -4.8044e-14 0)
(8.08915e-15 -3.52608e-14 0)
(1.06236e-13 -1.1484e-13 0)
(1.72575e-14 -8.69713e-14 0)
(-8.91717e-14 -1.78816e-13 0)
(2.42913e-14 -2.40129e-13 0)
(1.13814e-13 -2.11689e-13 0)
(1.28198e-13 -2.88863e-13 0)
(1.18786e-13 -2.50052e-13 0)
(1.73262e-13 -3.00352e-13 0)
(5.57224e-14 -2.88395e-13 0)
(-1.73744e-15 -3.60583e-13 0)
(1.24679e-13 -3.29612e-13 0)
(1.29168e-13 -1.94902e-13 0)
(1.13513e-13 -2.28536e-13 0)
(1.24936e-14 -2.14122e-13 0)
(-1.6993e-14 -2.7122e-13 0)
(9.46615e-15 -2.33672e-13 0)
(3.1499e-14 -2.43187e-13 0)
(-1.57745e-14 -2.21928e-13 0)
(-4.27867e-14 -2.76627e-13 0)
(-1.15993e-13 -2.68591e-13 0)
(-1.84055e-13 -1.95298e-13 0)
(-1.3599e-13 -2.12803e-13 0)
(-9.16105e-14 -1.6275e-13 0)
(-1.60399e-13 -2.26615e-13 0)
(-1.55529e-13 -1.83032e-13 0)
(-9.33279e-14 -3.1691e-13 0)
(-1.66965e-13 -3.57967e-13 0)
(-2.77098e-13 -2.60304e-13 0)
(-1.38454e-13 -2.39889e-13 0)
(-5.95703e-14 -2.26142e-13 0)
(-4.29802e-14 -9.33628e-14 0)
(6.73796e-14 -5.96555e-14 0)
(9.75921e-14 -8.55324e-14 0)
(7.65096e-14 -6.45287e-14 0)
(4.1727e-14 -1.77316e-13 0)
(5.59136e-14 -1.98592e-13 0)
(9.47648e-14 -1.26867e-13 0)
(1.18636e-13 -8.21033e-14 0)
(1.41163e-13 -2.12591e-13 0)
(1.19923e-13 -1.75529e-13 0)
(9.78096e-14 -2.53912e-13 0)
(1.55481e-13 -2.95865e-13 0)
(4.04871e-14 -2.93884e-13 0)
(-5.09252e-14 -3.35737e-13 0)
(-2.5591e-14 -2.30656e-13 0)
(-9.66541e-14 -9.10413e-14 0)
(-4.92027e-14 -1.40169e-13 0)
(1.88688e-14 -1.13761e-13 0)
(6.6242e-15 -1.57438e-13 0)
(1.12385e-13 -9.93152e-14 0)
(1.17022e-13 -2.00825e-13 0)
(-3.33189e-14 -2.26607e-13 0)
(-1.83822e-13 -2.27949e-13 0)
(-2.5066e-13 -2.85868e-13 0)
(-1.83362e-13 -2.24362e-13 0)
(-3.90699e-14 -1.81549e-13 0)
(-2.51692e-14 -1.56548e-13 0)
(-1.77547e-14 -1.02339e-13 0)
(-1.80189e-14 -1.92832e-14 0)
(1.34974e-15 -8.6093e-14 0)
(2.96479e-14 -2.23193e-13 0)
(9.18059e-14 -2.62393e-13 0)
(4.9815e-14 -1.91088e-13 0)
(-7.60541e-17 -1.19846e-13 0)
(-4.40384e-14 -2.04011e-13 0)
(3.98089e-14 -1.68276e-13 0)
(9.57918e-15 -1.3136e-13 0)
(-1.81619e-14 -9.22717e-14 0)
(1.04625e-13 -6.64255e-14 0)
(9.51498e-14 -5.82634e-14 0)
(4.38028e-14 -1.17261e-13 0)
(6.99805e-14 -1.76774e-13 0)
(-7.5111e-14 -1.0725e-13 0)
(-1.24213e-13 -1.52857e-13 0)
(4.56883e-14 -1.89943e-13 0)
(1.09893e-13 -2.74687e-13 0)
(1.65626e-14 -3.98338e-13 0)
(5.41515e-14 -4.00729e-13 0)
(6.67284e-14 -3.69895e-13 0)
(1.55241e-14 -3.34686e-13 0)
(-1.08326e-14 -3.2756e-13 0)
(-1.06057e-13 -2.58906e-13 0)
(-1.94057e-13 -2.61918e-13 0)
(-2.35174e-13 -3.18046e-13 0)
(-2.13567e-13 -2.68527e-13 0)
(-3.08823e-14 -3.06441e-13 0)
(6.11408e-14 -2.03449e-13 0)
(2.56156e-14 -6.07761e-14 0)
(2.52486e-14 -7.47936e-14 0)
(2.68926e-14 -1.53965e-13 0)
(6.63223e-14 -1.85853e-13 0)
(1.93385e-14 -1.56592e-13 0)
(-8.70467e-15 -1.96138e-13 0)
(-2.60421e-14 -2.04492e-13 0)
(1.8291e-14 -1.94736e-13 0)
(9.81264e-14 -1.80621e-13 0)
(1.55824e-13 -2.23526e-13 0)
(1.2786e-13 -2.78748e-13 0)
(9.73528e-14 -3.2871e-13 0)
(-4.50814e-14 -2.87238e-13 0)
(-1.2093e-13 -2.36418e-13 0)
(3.61928e-14 -2.84682e-13 0)
(1.66807e-13 -2.32948e-13 0)
(2.00043e-13 -2.78003e-13 0)
(1.29724e-13 -2.20233e-13 0)
(3.46509e-14 -2.51014e-13 0)
(1.19697e-14 -1.7295e-13 0)
(1.02656e-14 -1.89982e-13 0)
(8.63817e-14 -2.12697e-13 0)
(1.48775e-13 -2.40753e-13 0)
(1.11423e-13 -1.57549e-13 0)
(-5.16205e-14 -1.37546e-13 0)
(-3.40258e-14 -2.41854e-14 0)
(1.05894e-14 -4.4763e-14 0)
(-6.01394e-15 -1.00394e-13 0)
(-4.41174e-14 -5.61215e-14 0)
(-1.12404e-13 -1.22852e-13 0)
(-8.34352e-14 -2.01598e-13 0)
(-8.21325e-14 -1.88041e-13 0)
(-1.11623e-13 -1.7747e-13 0)
(-4.5778e-14 -4.42752e-14 0)
(2.39564e-14 2.31016e-14 0)
(-6.63489e-14 4.12258e-14 0)
(2.05945e-14 8.77972e-16 0)
(3.31739e-14 -8.37342e-14 0)
(-4.15695e-14 -1.00283e-13 0)
(3.19099e-14 -1.40428e-13 0)
(1.50505e-13 -1.22546e-13 0)
(1.63901e-13 -1.42753e-13 0)
(1.10955e-13 -1.48925e-13 0)
(1.44698e-13 -2.02116e-13 0)
(1.66798e-13 -1.68044e-13 0)
(7.60057e-15 -1.91222e-13 0)
(-1.63169e-13 -2.48804e-13 0)
(-9.45949e-14 -2.5668e-13 0)
(5.46125e-14 -2.926e-13 0)
(2.66851e-14 -3.81884e-13 0)
(5.79293e-15 -2.98076e-13 0)
(-1.17289e-13 -2.58086e-13 0)
(-1.70587e-13 -2.02398e-13 0)
(-1.35707e-13 -1.14434e-13 0)
(-1.8155e-14 -3.41075e-14 0)
(-6.39223e-14 -9.43957e-14 0)
(-1.27707e-13 -6.92242e-14 0)
(-7.39151e-14 -9.1666e-15 0)
(5.95167e-14 2.19161e-14 0)
(1.66463e-13 -3.83171e-15 0)
(2.74066e-14 -1.01049e-14 0)
(-3.55747e-14 -6.096e-14 0)
(-2.10124e-14 -4.09929e-14 0)
(-7.02131e-14 -1.79804e-13 0)
(-5.03805e-14 -2.97583e-13 0)
(1.84149e-14 -2.96973e-13 0)
(5.34723e-14 -2.3577e-13 0)
(1.51994e-14 -1.73059e-13 0)
(-5.15118e-15 -1.81238e-13 0)
(4.06173e-14 -8.99782e-14 0)
(1.41067e-13 -1.41857e-13 0)
(1.53318e-14 -2.38988e-13 0)
(-4.72282e-15 -2.71274e-13 0)
(2.58164e-16 -2.7404e-13 0)
(-7.30412e-14 -2.85242e-13 0)
(-8.28683e-15 -1.54866e-13 0)
(1.64564e-14 -1.25408e-13 0)
(1.1522e-14 -1.56061e-13 0)
(-7.98578e-15 -4.64375e-14 0)
(4.12734e-14 -7.39958e-14 0)
(1.88671e-14 -1.60789e-13 0)
(-1.04147e-13 -1.16576e-13 0)
(-3.58318e-14 -1.32671e-13 0)
(5.82505e-14 -1.16889e-13 0)
(8.36236e-14 -1.74204e-13 0)
(1.25358e-13 -1.88e-13 0)
(1.87093e-13 -2.2134e-13 0)
(7.0242e-14 -2.26553e-13 0)
(-8.60352e-15 -2.60501e-13 0)
(1.08016e-13 -3.16952e-13 0)
(1.36302e-13 -3.04177e-13 0)
(6.52544e-14 -3.40119e-13 0)
(-6.78121e-14 -2.86914e-13 0)
(-5.53363e-14 -3.73763e-13 0)
(2.49837e-14 -3.37856e-13 0)
(5.62162e-14 -3.36495e-13 0)
(-4.79655e-14 -3.60754e-13 0)
(-3.69066e-14 -3.6545e-13 0)
(-4.17583e-14 -3.01153e-13 0)
(-1.24493e-13 -3.27688e-13 0)
(-1.66728e-13 -2.55966e-13 0)
(-1.30019e-13 -3.07448e-13 0)
(-1.64652e-13 -3.67024e-13 0)
(-1.66709e-13 -2.98986e-13 0)
(-1.32096e-13 -2.11027e-13 0)
(-9.54612e-14 -3.07613e-13 0)
(-1.62281e-13 -2.29061e-13 0)
(-1.8531e-13 -2.20874e-13 0)
(-2.25921e-14 -2.51795e-13 0)
(6.87617e-14 -1.60771e-13 0)
(-1.23869e-14 -8.49646e-14 0)
(8.13609e-14 -1.41723e-13 0)
(9.70732e-14 -1.85221e-13 0)
(2.04997e-14 -2.12297e-13 0)
(8.34806e-14 -2.60251e-13 0)
(1.31239e-13 -2.16932e-13 0)
(3.54996e-14 -2.60358e-13 0)
(9.40568e-14 -2.22834e-13 0)
(1.17848e-13 -2.59829e-13 0)
(2.43626e-14 -2.47476e-13 0)
(9.18491e-14 -2.17405e-13 0)
(6.63914e-14 -3.29184e-13 0)
(2.93198e-14 -3.4538e-13 0)
(6.98204e-14 -2.99081e-13 0)
(-7.77476e-14 -3.09476e-13 0)
(-7.57773e-14 -2.60022e-13 0)
(-6.67186e-15 -2.94613e-13 0)
(5.757e-14 -2.79206e-13 0)
(5.18529e-14 -2.24379e-13 0)
(7.30363e-14 -2.66275e-13 0)
(-9.45294e-15 -3.52838e-13 0)
(-1.54666e-13 -3.42577e-13 0)
(-1.98858e-13 -3.1753e-13 0)
(-7.59791e-14 -2.04917e-13 0)
(-1.41689e-14 -1.43313e-13 0)
(-3.98248e-14 -1.25328e-13 0)
(-1.74702e-14 -1.47773e-13 0)
(2.59125e-14 -1.49204e-13 0)
(-2.60032e-14 -1.83341e-13 0)
(1.36927e-14 -2.19654e-13 0)
(1.13872e-13 -2.57922e-13 0)
(1.22729e-13 -2.29653e-13 0)
(1.26235e-14 -2.41114e-13 0)
(-5.96593e-14 -2.09618e-13 0)
(7.84199e-14 -1.96926e-13 0)
(1.01321e-13 -1.71918e-13 0)
(7.01551e-14 -3.43301e-14 0)
(1.21332e-13 2.39702e-14 0)
(9.79943e-14 2.92353e-14 0)
(-1.4666e-14 2.33775e-14 0)
(-2.03263e-14 -6.99111e-14 0)
(-1.03374e-13 -1.1957e-13 0)
(-1.26253e-13 -1.72477e-13 0)
(1.86981e-16 -2.3086e-13 0)
(-1.03489e-13 -2.94138e-13 0)
(-8.87019e-14 -4.38082e-13 0)
(6.92154e-14 -5.22671e-13 0)
(1.44952e-13 -5.27475e-13 0)
(1.14231e-13 -5.47677e-13 0)
(7.57217e-14 -4.33666e-13 0)
(-8.10918e-14 -4.45996e-13 0)
(-2.43569e-13 -3.09085e-13 0)
(-2.57178e-13 -3.40139e-13 0)
(-1.9366e-13 -2.39163e-13 0)
(-2.94146e-14 -2.1483e-13 0)
(1.09663e-13 -1.95802e-13 0)
(8.3668e-14 -2.273e-13 0)
(4.18826e-14 -2.85827e-13 0)
(5.14125e-14 -1.62159e-13 0)
(9.76691e-14 -2.15843e-13 0)
(-5.96943e-15 -1.37588e-13 0)
(-8.62738e-14 -9.32162e-14 0)
(-4.45029e-14 -1.15913e-13 0)
(-1.89067e-14 -1.73631e-13 0)
(2.57198e-14 -1.55767e-13 0)
(8.50499e-14 -2.41697e-13 0)
(1.11898e-13 -3.91507e-13 0)
(1.37759e-13 -3.67994e-13 0)
(2.08024e-14 -3.1758e-13 0)
(-1.27538e-13 -2.23723e-13 0)
(4.4827e-14 -2.11036e-13 0)
(1.67873e-13 -2.23902e-13 0)
(1.31907e-13 -2.51065e-13 0)
(7.83725e-14 -3.70636e-13 0)
(8.95124e-14 -3.71552e-13 0)
(1.02975e-13 -2.97391e-13 0)
(3.5162e-14 -1.72732e-13 0)
(3.22422e-14 -1.51536e-13 0)
(1.13203e-13 -1.15549e-13 0)
(8.45084e-14 -1.82187e-13 0)
(-8.20314e-15 -1.64766e-13 0)
(3.68934e-14 -1.97636e-13 0)
(-2.61373e-15 -2.3911e-13 0)
(3.80027e-14 -1.53475e-13 0)
(3.71272e-14 -1.07524e-13 0)
(-1.65494e-13 -6.45058e-14 0)
(-1.46111e-13 -1.10529e-13 0)
(-1.04071e-13 -9.41469e-14 0)
(-5.2498e-14 -1.35371e-13 0)
(2.94139e-14 -1.85532e-14 0)
(5.26035e-14 -4.47556e-14 0)
(-1.38007e-14 -1.17443e-13 0)
(-6.03333e-14 -8.77616e-14 0)
(-3.22206e-14 -2.00623e-13 0)
(-2.95619e-14 -1.60783e-13 0)
(5.34283e-14 -1.03051e-13 0)
(1.26145e-13 -7.47317e-14 0)
(1.16328e-13 -2.18849e-13 0)
(8.27814e-14 -2.60147e-13 0)
(1.41706e-13 -2.15291e-13 0)
(1.49235e-13 -3.15747e-13 0)
(-3.23688e-14 -2.84959e-13 0)
(-1.86734e-13 -3.76373e-13 0)
(-7.31056e-14 -3.36868e-13 0)
(-1.17193e-14 -3.32684e-13 0)
(-2.40716e-14 -3.30892e-13 0)
(1.95463e-14 -3.75655e-13 0)
(-5.43007e-15 -3.69746e-13 0)
(-6.03465e-14 -2.01278e-13 0)
(-1.01661e-15 -1.36933e-13 0)
(-7.70614e-14 -5.2304e-14 0)
(-1.63747e-13 -1.09354e-13 0)
(-8.02478e-14 -6.75658e-14 0)
(4.087e-14 2.0193e-14 0)
(5.90975e-14 6.47281e-14 0)
(8.32846e-14 -1.90341e-14 0)
(2.50217e-14 -1.56075e-13 0)
(-4.86664e-14 -9.40588e-14 0)
(-9.93076e-14 -1.95278e-13 0)
(-2.40271e-13 -1.66272e-13 0)
(-1.00086e-13 -2.52928e-13 0)
(9.32656e-14 -2.51487e-13 0)
(1.27007e-13 -3.09678e-13 0)
(8.75481e-14 -2.99241e-13 0)
(1.60473e-13 -1.66001e-13 0)
(1.14287e-13 -5.13203e-14 0)
(-3.42752e-14 -8.98199e-14 0)
(-1.01732e-13 -1.7475e-13 0)
(-1.32968e-14 -2.09752e-13 0)
(-5.21142e-14 -3.32202e-13 0)
(-5.82571e-14 -3.32297e-13 0)
(6.46129e-14 -3.60459e-13 0)
(3.49367e-14 -3.38811e-13 0)
(9.09941e-14 -2.38115e-13 0)
(1.1997e-13 -9.49729e-14 0)
(-4.53966e-14 -6.17223e-14 0)
(-2.7232e-14 -1.1514e-13 0)
(-3.78837e-14 -1.28641e-13 0)
(8.51255e-15 -6.31313e-14 0)
(5.83942e-14 -1.58454e-14 0)
(5.13271e-14 -6.86262e-14 0)
(1.12511e-13 -1.41967e-13 0)
(1.66048e-13 -1.08061e-13 0)
(2.20455e-14 -1.75089e-13 0)
(-9.76128e-14 -2.11256e-13 0)
(2.16761e-14 -2.90227e-13 0)
(1.29589e-13 -2.95404e-13 0)
(6.86157e-14 -3.44514e-13 0)
(-3.96644e-14 -3.81562e-13 0)
(-7.93444e-14 -3.2423e-13 0)
(5.71141e-14 -3.78024e-13 0)
(2.13386e-14 -2.83356e-13 0)
(-6.00666e-14 -3.06423e-13 0)
(1.17801e-15 -2.72824e-13 0)
(-7.87245e-14 -2.88113e-13 0)
(-1.41539e-13 -3.17541e-13 0)
(-1.27306e-13 -3.3807e-13 0)
(-1.40696e-13 -3.74424e-13 0)
(-9.7226e-14 -2.96391e-13 0)
(-4.80118e-14 -2.73704e-13 0)
(-1.31347e-13 -1.94494e-13 0)
(-1.93523e-13 -2.13222e-13 0)
(-1.66692e-13 -2.27557e-13 0)
(-1.9195e-13 -2.18969e-13 0)
(-1.19366e-14 -1.90413e-13 0)
(1.65924e-13 -1.94539e-13 0)
(6.79748e-14 -1.3755e-13 0)
(-3.37495e-15 -1.80383e-13 0)
(3.23344e-14 -2.58961e-13 0)
(-1.58222e-14 -2.43647e-13 0)
(1.08686e-13 -2.25178e-13 0)
(6.66017e-14 -2.43489e-13 0)
(7.39741e-14 -2.99266e-13 0)
(1.20106e-13 -2.17157e-13 0)
(5.33743e-14 -2.30973e-13 0)
(1.02618e-13 -2.07314e-13 0)
(7.32708e-14 -1.37718e-13 0)
(-4.92883e-14 -2.3497e-13 0)
(5.68459e-14 -2.69239e-13 0)
(4.36633e-14 -3.31198e-13 0)
(-4.6234e-14 -3.39456e-13 0)
(-5.89885e-14 -3.85736e-13 0)
(2.37491e-14 -3.96332e-13 0)
(1.04469e-13 -2.61375e-13 0)
(9.66441e-14 -2.84167e-13 0)
(-4.70763e-15 -2.2661e-13 0)
(-5.76634e-14 -2.79e-13 0)
(-9.57474e-14 -2.37193e-13 0)
(-1.41277e-13 -1.83032e-13 0)
(-4.26254e-14 -6.22551e-14 0)
(-2.28676e-14 -1.33097e-13 0)
(-3.46946e-14 -2.42877e-13 0)
(-1.70759e-14 -2.16149e-13 0)
(4.18158e-15 -2.5363e-13 0)
(-7.01564e-14 -1.74837e-13 0)
(5.71568e-14 -1.52391e-13 0)
(8.62609e-14 -1.91921e-13 0)
(1.00222e-13 -1.89818e-13 0)
(2.22596e-14 -1.90286e-13 0)
(-2.64951e-14 -1.32564e-13 0)
(6.01269e-14 -1.14942e-13 0)
(1.82306e-13 -1.19043e-13 0)
(1.35195e-13 -1.09195e-13 0)
(1.04713e-13 -1.63755e-13 0)
(1.03542e-13 -1.69976e-13 0)
(3.20954e-14 -1.32076e-13 0)
(-5.14256e-14 -1.11521e-13 0)
(-1.40972e-13 -1.56877e-13 0)
(-2.14464e-13 -1.15938e-13 0)
(-1.0135e-13 -2.41361e-13 0)
(-1.28167e-13 -3.04878e-13 0)
(-1.34095e-13 -2.76598e-13 0)
(-6.28566e-14 -4.03712e-13 0)
(3.21529e-14 -4.71815e-13 0)
(1.78935e-13 -5.13908e-13 0)
(9.03576e-14 -4.1973e-13 0)
(-9.08293e-15 -4.78387e-13 0)
(-9.84081e-14 -3.90381e-13 0)
(-1.81412e-13 -3.35824e-13 0)
(-1.22032e-13 -2.81065e-13 0)
(-3.30813e-14 -1.86347e-13 0)
(8.81736e-14 -2.13569e-13 0)
(-2.34991e-14 -2.32424e-13 0)
(2.37881e-14 -2.30213e-13 0)
(6.54065e-14 -2.08999e-13 0)
(8.37691e-14 -2.27312e-13 0)
(1.28304e-13 -2.60999e-13 0)
(-3.10248e-14 -1.91976e-13 0)
(-9.50023e-14 -1.48794e-13 0)
(-8.56309e-15 -1.55131e-13 0)
(2.96175e-14 -1.57791e-13 0)
(-7.32979e-14 -2.2344e-13 0)
(1.6052e-14 -3.168e-13 0)
(2.30316e-13 -2.9594e-13 0)
(8.7723e-14 -2.51759e-13 0)
(-7.04812e-14 -2.63219e-13 0)
(2.15495e-14 -1.91132e-13 0)
(1.02961e-13 -2.30295e-13 0)
(6.89362e-14 -2.81972e-13 0)
(1.86087e-14 -3.31816e-13 0)
(5.90779e-14 -2.99142e-13 0)
(1.59662e-13 -3.46201e-13 0)
(1.7197e-13 -2.70619e-13 0)
(1.10141e-13 -2.23677e-13 0)
(1.03459e-13 -1.39055e-13 0)
(7.41688e-14 -1.90459e-13 0)
(-2.31875e-14 -1.21069e-13 0)
(-7.8615e-14 -1.50494e-13 0)
(2.6245e-14 -1.95145e-13 0)
(1.04089e-13 -2.56326e-13 0)
(4.45487e-14 -3.02154e-13 0)
(-1.02152e-13 -2.30741e-13 0)
(-9.50298e-14 -1.14876e-13 0)
(-1.3226e-13 -9.98545e-14 0)
(-6.83277e-14 -5.54965e-14 0)
(9.66098e-14 -1.15642e-13 0)
(-2.07616e-14 -7.85133e-14 0)
(-8.78045e-14 -1.24763e-13 0)
(-7.41818e-14 -1.10298e-13 0)
(-4.05519e-14 -1.32704e-13 0)
(1.08051e-14 -9.17996e-14 0)
(9.82334e-14 -3.53055e-14 0)
(6.49892e-14 -8.91322e-14 0)
(4.6504e-15 -1.44796e-13 0)
(1.15491e-13 -1.96534e-13 0)
(7.92588e-14 -2.47832e-13 0)
(8.20067e-14 -3.3236e-13 0)
(-2.40956e-16 -2.65986e-13 0)
(-1.86446e-13 -2.76042e-13 0)
(-4.69655e-14 -2.16855e-13 0)
(6.90134e-14 -2.83289e-13 0)
(4.65971e-15 -2.01128e-13 0)
(-5.01037e-14 -3.12393e-13 0)
(4.96468e-14 -2.97825e-13 0)
(1.90775e-14 -2.46332e-13 0)
(6.70107e-14 -1.75114e-13 0)
(4.09643e-15 -9.60982e-14 0)
(-8.05612e-14 -7.34336e-14 0)
(-2.71778e-14 -5.91079e-14 0)
(3.15481e-14 -3.63525e-14 0)
(1.68998e-14 -3.25341e-14 0)
(-5.7881e-14 -5.94138e-14 0)
(-2.16856e-14 -1.01212e-13 0)
(-5.08397e-14 -4.01518e-14 0)
(-1.379e-13 -1.3402e-13 0)
(-1.86671e-13 -1.34315e-13 0)
(-1.29177e-13 -1.22933e-13 0)
(4.4454e-14 -1.50873e-13 0)
(7.60163e-14 -2.42973e-13 0)
(1.55337e-13 -2.44447e-13 0)
(2.17474e-13 -1.87197e-13 0)
(1.19828e-13 -2.01315e-13 0)
(-3.33849e-14 -1.38657e-13 0)
(-1.23183e-13 -1.53647e-13 0)
(-1.419e-13 -1.83971e-13 0)
(-1.25237e-13 -2.71902e-13 0)
(-1.16502e-13 -2.48675e-13 0)
(-2.34866e-15 -3.11955e-13 0)
(1.49468e-13 -3.14772e-13 0)
(1.991e-13 -2.70931e-13 0)
(1.48197e-13 -2.83832e-13 0)
(1.89062e-14 -2.34135e-13 0)
(-7.67484e-14 -1.56752e-13 0)
(-8.28385e-14 -1.97341e-13 0)
(6.01332e-14 -1.55074e-13 0)
(8.45054e-14 -1.27019e-13 0)
(-3.06277e-14 -1.17326e-13 0)
(7.50187e-14 -1.61828e-13 0)
(1.93284e-13 -2.06977e-13 0)
(-3.69103e-14 -2.36872e-13 0)
(-1.14577e-13 -2.86266e-13 0)
(7.17326e-15 -2.47916e-13 0)
(8.97212e-14 -2.31721e-13 0)
(-6.13571e-15 -2.84055e-13 0)
(-4.66801e-14 -3.40561e-13 0)
(-4.88177e-14 -2.71834e-13 0)
(2.9084e-14 -2.73259e-13 0)
(1.04817e-13 -2.49814e-13 0)
(-3.26696e-14 -2.7096e-13 0)
(-1.95457e-14 -2.92447e-13 0)
(-9.2239e-14 -3.19771e-13 0)
(-1.66579e-13 -2.9502e-13 0)
(-1.67494e-13 -3.1106e-13 0)
(-1.00136e-13 -2.76329e-13 0)
(-8.52852e-14 -2.79391e-13 0)
(-5.18036e-14 -3.07736e-13 0)
(-6.94489e-14 -3.5962e-13 0)
(-1.73951e-13 -2.72747e-13 0)
(-1.40588e-13 -2.13516e-13 0)
(-1.90798e-13 -1.33536e-13 0)
(1.35347e-14 -1.30146e-13 0)
(1.46851e-13 -1.33999e-13 0)
(2.8093e-14 -1.78586e-13 0)
(-2.85915e-14 -1.34341e-13 0)
(5.86012e-14 -1.54275e-13 0)
(3.17607e-14 -1.25571e-13 0)
(6.74588e-14 -1.29303e-13 0)
(4.26618e-14 -1.64997e-13 0)
(4.2224e-14 -1.98454e-13 0)
(1.51682e-13 -1.89427e-13 0)
(9.76192e-14 -1.44342e-13 0)
(1.15725e-13 -1.59673e-13 0)
(4.90109e-14 -1.79062e-13 0)
(-1.0036e-13 -1.42182e-13 0)
(-1.11046e-14 -2.1231e-13 0)
(3.71909e-14 -3.40536e-13 0)
(-1.20685e-13 -3.21339e-13 0)
(-1.16632e-13 -3.71615e-13 0)
(8.84784e-14 -3.71382e-13 0)
(1.15921e-13 -3.25759e-13 0)
(1.24276e-13 -3.19549e-13 0)
(7.8432e-14 -2.65705e-13 0)
(-2.13033e-14 -2.37625e-13 0)
(-8.2871e-14 -2.38159e-13 0)
(-3.24791e-14 -1.48142e-13 0)
(-4.17369e-14 -1.20594e-13 0)
(-1.43542e-13 -1.84757e-13 0)
(-8.78163e-14 -2.11426e-13 0)
(-1.50431e-14 -1.68834e-13 0)
(8.56033e-14 -1.99444e-13 0)
(-1.00854e-14 -1.16008e-13 0)
(1.14076e-13 -1.59818e-13 0)
(6.02695e-14 -1.84395e-13 0)
(1.08677e-13 -2.6716e-13 0)
(7.66977e-14 -2.53632e-13 0)
(4.18379e-14 -1.7819e-13 0)
(1.07981e-13 -6.55508e-14 0)
(1.19729e-13 -8.66459e-14 0)
(4.69819e-14 -1.74706e-13 0)
(3.36403e-14 -2.00474e-13 0)
(1.29588e-13 -2.02907e-13 0)