/*--------------------------------*- C++ -*----------------------------------*\
  =========                 |
  \\      /  F ield         | OpenFOAM: The Open Source CFD Toolbox
   \\    /   O peration     | Website:  https://openfoam.org
    \\  /    A nd           | Version:  13
     \\/     M anipulation  |
\*---------------------------------------------------------------------------*/
FoamFile
{
    format      ascii;
    class       volVectorField;
    location    "0.0016";
    object      U;
}
// * * * * * * * * * * * * * * * * * * * * * * * * * * * * * * * * * * * * * //

dimensions      [0 1 -1 0 0 0 0];

internalField   nonuniform List<vector> 
33333
(
(2.51754e-13 5.90382e-13 0)
(2.71703e-13 4.5106e-13 0)
(2.34853e-13 3.29791e-13 0)
(2.43e-13 5.43793e-13 0)
(3.19431e-13 5.74935e-13 0)
(3.86327e-13 4.95863e-13 0)
(5.34324e-13 5.33948e-13 0)
(2.47278e-13 4.29055e-13 0)
(-2.60636e-14 6.33509e-13 0)
(1.61763e-15 6.75949e-13 0)
(1.05118e-13 4.43988e-13 0)
(-2.21326e-13 2.40882e-13 0)
(-5.58543e-13 4.93336e-13 0)
(-4.92058e-13 5.59995e-13 0)
(-3.94309e-13 4.24866e-13 0)
(-3.73572e-13 3.31396e-13 0)
(-4.28707e-13 3.69577e-13 0)
(-3.90856e-13 3.60039e-13 0)
(-2.66747e-13 4.04646e-13 0)
(-1.4007e-13 5.13672e-13 0)
(-1.87845e-13 5.9178e-13 0)
(-9.82177e-14 5.02355e-13 0)
(1.21331e-13 6.29648e-13 0)
(6.75258e-14 7.36011e-13 0)
(-3.2104e-14 6.83755e-13 0)
(-7.79971e-14 5.96019e-13 0)
(-3.94963e-14 7.04079e-13 0)
(7.74256e-15 5.44914e-13 0)
(9.72626e-14 6.01254e-13 0)
(4.27218e-14 6.76616e-13 0)
(-9.24039e-15 6.25278e-13 0)
(1.54606e-13 6.0698e-13 0)
(2.35642e-13 6.69797e-13 0)
(9.9546e-14 7.19329e-13 0)
(-9.84997e-14 6.53284e-13 0)
(-1.10444e-13 4.62779e-13 0)
(-6.71367e-14 3.99531e-13 0)
(1.52117e-13 4.26983e-13 0)
(1.67243e-13 5.23646e-13 0)
(1.01072e-13 5.67135e-13 0)
(1.57269e-13 5.83831e-13 0)
(1.12791e-13 6.46715e-13 0)
(-1.99512e-14 7.20958e-13 0)
(2.81417e-14 4.55417e-13 0)
(1.48913e-13 3.45889e-13 0)
(1.86579e-13 4.05248e-13 0)
(7.91014e-14 3.41634e-13 0)
(7.75097e-15 3.91428e-13 0)
(2.05357e-13 3.56671e-13 0)
(3.02068e-13 4.32149e-13 0)
(1.33832e-13 5.73079e-13 0)
(-4.41921e-14 6.69329e-13 0)
(5.8139e-14 5.28286e-13 0)
(2.13008e-13 6.17259e-13 0)
(2.38079e-13 6.68999e-13 0)
(1.49457e-13 5.92522e-13 0)
(2.41369e-13 6.8142e-13 0)
(3.11017e-13 8.74832e-13 0)
(5.28735e-14 9.0047e-13 0)
(-7.08708e-14 8.49918e-13 0)
(-5.62191e-14 7.2313e-13 0)
(3.6662e-14 5.89879e-13 0)
(1.52053e-13 5.92643e-13 0)
(9.71378e-15 6.84283e-13 0)
(3.3337e-14 7.71782e-13 0)
(5.74249e-14 8.87935e-13 0)
(-1.36689e-13 8.88604e-13 0)
(-3.0717e-13 7.84522e-13 0)
(-2.03086e-13 5.32536e-13 0)
(-1.31803e-13 4.36167e-13 0)
(-1.4483e-13 5.85651e-13 0)
(-1.91588e-13 5.62864e-13 0)
(-6.18541e-14 5.72049e-13 0)
(1.45719e-13 4.56282e-13 0)
(1.27418e-13 3.25267e-13 0)
(-1.29397e-13 2.55551e-13 0)
(-3.33645e-13 2.94741e-13 0)
(-1.27771e-13 2.85958e-13 0)
(2.01782e-13 3.62327e-13 0)
(3.75464e-13 4.96538e-13 0)
(3.02267e-13 4.70627e-13 0)
(3.76256e-13 6.67289e-13 0)
(4.34519e-13 9.04678e-13 0)
(2.3725e-13 8.99382e-13 0)
(2.10571e-13 7.72476e-13 0)
(3.90968e-13 6.97992e-13 0)
(7.48727e-14 4.07333e-13 0)
(-4.052e-13 3.55473e-13 0)
(-2.93452e-13 5.30594e-13 0)
(-2.35612e-13 8.33514e-13 0)
(-3.3302e-13 8.6319e-13 0)
(-4.60722e-13 7.7767e-13 0)
(-4.77529e-13 6.35249e-13 0)
(-2.89187e-13 4.45881e-13 0)
(-5.89356e-14 3.49847e-13 0)
(2.00282e-13 4.11568e-13 0)
(1.75413e-13 3.34157e-13 0)
(4.29594e-14 3.68565e-13 0)
(1.29921e-13 3.45126e-13 0)
(2.89389e-13 3.9106e-13 0)
(3.47221e-13 5.32717e-13 0)
(-1.75562e-14 2.93654e-13 0)
(-1.861e-13 3.87974e-13 0)
(6.83936e-14 3.72638e-13 0)
(1.28001e-14 3.19163e-13 0)
(8.38579e-14 5.42451e-13 0)
(1.49928e-13 8.26381e-13 0)
(1.22452e-13 8.46312e-13 0)
(3.12099e-14 9.00479e-13 0)
(-7.35563e-14 8.09399e-13 0)
(-1.25712e-13 5.0273e-13 0)
(-1.06937e-13 4.13465e-13 0)
(-1.06732e-13 4.90381e-13 0)
(-1.1439e-13 5.23378e-13 0)
(-3.60732e-14 5.61322e-13 0)
(-9.19575e-14 5.22856e-13 0)
(-1.90759e-13 5.46777e-13 0)
(-3.67154e-14 4.82087e-13 0)
(4.05627e-14 2.88479e-13 0)
(-2.5296e-14 2.92315e-13 0)
(-2.9853e-15 4.52524e-13 0)
(-1.52528e-13 4.49739e-13 0)
(-2.14828e-13 4.75836e-13 0)
(-8.80948e-14 4.19584e-13 0)
(-9.18106e-14 4.08825e-13 0)
(-2.32726e-13 5.60878e-13 0)
(-2.39636e-13 4.84681e-13 0)
(-1.7634e-14 4.33019e-13 0)
(1.25874e-13 5.60086e-13 0)
(5.63608e-14 6.44751e-13 0)
(-1.16547e-14 5.67575e-13 0)
(1.45958e-13 7.25888e-13 0)
(2.31815e-13 8.10795e-13 0)
(7.32131e-14 8.16345e-13 0)
(8.31791e-14 7.61737e-13 0)
(1.20422e-13 6.93187e-13 0)
(1.85348e-13 6.31284e-13 0)
(1.3585e-13 5.85951e-13 0)
(8.0204e-15 7.73085e-13 0)
(-6.14557e-14 9.3555e-13 0)
(-1.74062e-13 9.36006e-13 0)
(-2.31345e-13 8.50701e-13 0)
(-2.36506e-13 7.20238e-13 0)
(-1.39699e-13 5.99104e-13 0)
(-1.07694e-14 6.39968e-13 0)
(-2.3407e-14 5.45148e-13 0)
(-4.52444e-14 2.72515e-13 0)
(9.31644e-15 2.63443e-13 0)
(-8.38755e-14 2.25235e-13 0)
(-6.64235e-14 4.15263e-13 0)
(1.87681e-14 5.5193e-13 0)
(-5.18401e-14 4.91457e-13 0)
(1.20101e-13 3.79184e-13 0)
(2.30635e-13 4.24168e-13 0)
(1.84537e-13 5.62178e-13 0)
(1.0148e-13 5.20339e-13 0)
(2.71949e-13 6.84941e-13 0)
(4.311e-13 8.64629e-13 0)
(2.88292e-13 8.67333e-13 0)
(2.42901e-13 7.41348e-13 0)
(2.31932e-13 4.62539e-13 0)
(1.3086e-13 6.18707e-13 0)
(1.50069e-13 7.57273e-13 0)
(1.36986e-13 7.40495e-13 0)
(9.69345e-15 7.8225e-13 0)
(-3.49757e-13 6.33315e-13 0)
(2.90407e-13 4.79217e-13 0)
(1.96138e-13 5.17855e-13 0)
(4.49967e-13 5.89469e-13 0)
(4.38641e-13 7.02916e-13 0)
(3.32268e-13 5.92665e-13 0)
(4.07503e-13 7.9964e-13 0)
(4.8022e-13 8.65307e-13 0)
(4.03104e-13 7.59311e-13 0)
(2.29753e-13 6.84711e-13 0)
(-1.06784e-13 7.10042e-13 0)
(-2.06572e-13 6.94644e-13 0)
(-2.02467e-13 4.8979e-13 0)
(-4.48729e-13 6.02456e-13 0)
(-6.75034e-13 5.17341e-13 0)
(-5.77178e-13 6.05021e-13 0)
(-3.12036e-13 7.12247e-13 0)
(-3.37512e-13 7.01743e-13 0)
(-3.08348e-13 6.98929e-13 0)
(-1.47231e-13 8.58944e-13 0)
(3.67607e-14 7.6283e-13 0)
(-2.05268e-13 8.1959e-13 0)
(-2.78608e-13 7.03664e-13 0)
(9.46842e-14 6.71166e-13 0)
(5.09306e-14 7.00505e-13 0)
(-1.26614e-13 7.54629e-13 0)
(4.10336e-14 7.27463e-13 0)
(3.61862e-14 7.60662e-13 0)
(-7.97605e-15 9.44134e-13 0)
(2.40342e-13 8.22055e-13 0)
(2.90933e-14 8.59212e-13 0)
(-1.94345e-13 7.90849e-13 0)
(1.37323e-13 7.78511e-13 0)
(3.0454e-13 7.97796e-13 0)
(7.18374e-14 6.81239e-13 0)
(-2.13449e-13 7.17255e-13 0)
(-2.22633e-13 8.37311e-13 0)
(-3.08611e-14 6.91232e-13 0)
(1.85623e-13 7.48205e-13 0)
(1.49121e-13 6.95197e-13 0)
(1.40729e-13 7.03852e-13 0)
(2.86794e-13 7.31318e-13 0)
(2.93259e-13 7.38162e-13 0)
(-1.96225e-14 7.2468e-13 0)
(-9.90009e-14 8.04063e-13 0)
(1.97005e-13 8.15524e-13 0)
(6.09336e-14 7.87394e-13 0)
(-1.40962e-13 5.44415e-13 0)
(8.33056e-14 5.93855e-13 0)
(2.57807e-13 7.14917e-13 0)
(3.56402e-13 4.70504e-13 0)
(3.77697e-13 5.84764e-13 0)
(-1.01464e-13 6.78993e-13 0)
(-3.04846e-14 5.69875e-13 0)
(3.165e-13 5.67783e-13 0)
(1.80909e-13 6.37028e-13 0)
(4.40599e-14 5.96503e-13 0)
(3.62015e-13 6.28345e-13 0)
(3.9584e-13 7.55296e-13 0)
(3.4372e-14 5.49227e-13 0)
(-9.33557e-14 6.57756e-13 0)
(-1.50524e-13 8.47956e-13 0)
(-1.50219e-14 7.01759e-13 0)
(1.61056e-13 7.31354e-13 0)
(-3.22704e-14 6.41366e-13 0)
(9.3346e-14 7.37144e-13 0)
(1.47581e-13 6.90932e-13 0)
(-1.53534e-13 6.53045e-13 0)
(-3.84585e-13 5.94444e-13 0)
(-3.62264e-13 6.33768e-13 0)
(4.76825e-14 5.53465e-13 0)
(-8.3516e-14 7.41773e-13 0)
(-4.45272e-13 7.05752e-13 0)
(-1.22918e-13 6.75911e-13 0)
(1.2705e-13 5.8567e-13 0)
(3.89508e-14 3.31252e-13 0)
(-1.39768e-13 2.96623e-13 0)
(-1.88092e-13 5.74689e-13 0)
(2.2339e-14 5.82861e-13 0)
(3.97418e-13 6.32587e-13 0)
(3.50774e-13 8.4713e-13 0)
(2.14454e-13 8.31438e-13 0)
(5.36549e-13 8.59686e-13 0)
(4.75849e-13 7.89472e-13 0)
(1.26765e-13 5.69163e-13 0)
(1.50762e-13 4.78353e-13 0)
(2.30746e-13 6.07364e-13 0)
(-4.38889e-14 4.21334e-13 0)
(-3.33151e-13 4.98092e-13 0)
(-2.18196e-13 5.63016e-13 0)
(-1.02693e-13 6.8942e-13 0)
(-3.21064e-13 7.26896e-13 0)
(-5.04019e-13 6.20147e-13 0)
(-5.49954e-13 5.79588e-13 0)
(-4.08303e-13 7.18359e-13 0)
(-3.91936e-14 6.83174e-13 0)
(1.14812e-13 8.77693e-13 0)
(9.52354e-14 7.96142e-13 0)
(5.73278e-14 8.28625e-13 0)
(1.45924e-13 7.04705e-13 0)
(4.54245e-13 5.52995e-13 0)
(2.19564e-13 7.49936e-13 0)
(-2.10545e-13 5.68226e-13 0)
(-5.59031e-14 4.99547e-13 0)
(5.50434e-14 6.16015e-13 0)
(3.45482e-14 5.73495e-13 0)
(2.19359e-13 5.30431e-13 0)
(2.54736e-13 6.47717e-13 0)
(9.42125e-14 7.34519e-13 0)
(-2.32918e-14 5.63316e-13 0)
(-2.48873e-13 6.51694e-13 0)
(-2.7489e-13 6.985e-13 0)
(-4.99137e-14 6.35816e-13 0)
(3.58186e-14 6.84838e-13 0)
(-1.05823e-13 7.71532e-13 0)
(-3.8597e-14 8.51921e-13 0)
(-6.28757e-14 7.54111e-13 0)
(-1.78029e-13 7.12172e-13 0)
(-1.76012e-13 6.05213e-13 0)
(-4.42197e-14 6.59618e-13 0)
(1.51048e-13 7.07441e-13 0)
(-4.04516e-14 7.7999e-13 0)
(-3.20591e-13 6.45246e-13 0)
(-1.90669e-13 7.25622e-13 0)
(-4.28981e-14 8.25227e-13 0)
(1.20915e-13 6.49918e-13 0)
(-1.46462e-13 8.24934e-13 0)
(-4.2679e-13 8.67158e-13 0)
(-3.88314e-14 6.80046e-13 0)
(3.29827e-13 7.23923e-13 0)
(3.87965e-14 7.33942e-13 0)
(-1.91634e-13 7.7239e-13 0)
(2.14149e-13 7.57164e-13 0)
(2.57942e-13 8.42121e-13 0)
(2.02915e-14 6.69879e-13 0)
(1.08229e-13 7.00243e-13 0)
(1.34429e-13 1.02548e-12 0)
(6.90364e-14 1.0464e-12 0)
(1.34096e-13 8.91289e-13 0)
(1.25693e-13 7.23371e-13 0)
(2.07277e-14 7.96117e-13 0)
(-1.92373e-13 6.47464e-13 0)
(-2.62661e-13 6.79315e-13 0)
(-3.07045e-13 6.73117e-13 0)
(-8.07011e-14 7.7106e-13 0)
(5.84527e-14 7.36622e-13 0)
(-3.08077e-13 7.43675e-13 0)
(-3.62713e-13 4.96746e-13 0)
(-2.78391e-14 4.85895e-13 0)
(7.52716e-14 5.64606e-13 0)
(2.45254e-13 5.85693e-13 0)
(1.6866e-13 8.60832e-13 0)
(-2.35581e-13 8.42619e-13 0)
(2.00692e-14 6.90144e-13 0)
(3.75332e-13 6.88942e-13 0)
(1.66409e-13 7.12057e-13 0)
(-1.96293e-14 6.73974e-13 0)
(4.23018e-13 6.2852e-13 0)
(5.27869e-13 6.70131e-13 0)
(2.48596e-13 5.82246e-13 0)
(7.6293e-14 5.88583e-13 0)
(1.54098e-13 5.90193e-13 0)
(3.18038e-13 5.91713e-13 0)
(1.56457e-13 6.36609e-13 0)
(3.7107e-14 4.73384e-13 0)
(-5.80864e-14 4.99602e-13 0)
(-3.60171e-13 3.72359e-13 0)
(2.80586e-13 5.11967e-13 0)
(3.10514e-13 6.35462e-13 0)
(4.9354e-13 6.20238e-13 0)
(3.51368e-13 4.80503e-13 0)
(4.3553e-13 6.42682e-13 0)
(6.23341e-13 7.40165e-13 0)
(4.61603e-13 6.81962e-13 0)
(1.98574e-13 5.26031e-13 0)
(2.51928e-14 3.41271e-13 0)
(-1.2927e-14 3.11282e-13 0)
(-7.33768e-14 4.54605e-13 0)
(-2.93921e-13 4.17124e-13 0)
(-5.83969e-13 4.61594e-13 0)
(-5.72906e-13 4.88846e-13 0)
(-3.47422e-13 6.88222e-13 0)
(-2.61438e-13 6.2092e-13 0)
(-4.24712e-13 6.65884e-13 0)
(-1.77831e-13 7.14192e-13 0)
(-9.53708e-14 8.9147e-13 0)
(-6.18414e-14 8.41374e-13 0)
(-1.86166e-13 7.15575e-13 0)
(-2.52106e-13 7.39303e-13 0)
(2.37877e-14 8.15125e-13 0)
(8.87008e-14 6.67371e-13 0)
(-2.08304e-14 7.25817e-13 0)
(-2.58705e-15 8.30602e-13 0)
(1.63655e-13 6.92797e-13 0)
(8.4557e-14 8.90311e-13 0)
(7.34776e-14 7.54148e-13 0)
(1.79844e-14 6.55621e-13 0)
(-9.19134e-14 7.62533e-13 0)
(1.15423e-13 8.67036e-13 0)
(1.44326e-13 7.10465e-13 0)
(5.21321e-14 6.02819e-13 0)
(-3.81258e-15 6.71432e-13 0)
(-1.54463e-13 8.37917e-13 0)
(-9.6538e-14 8.31301e-13 0)
(1.46523e-13 6.82719e-13 0)
(1.35257e-13 6.65917e-13 0)
(1.589e-13 7.22573e-13 0)
(2.56605e-13 6.96898e-13 0)
(2.17552e-13 6.99446e-13 0)
(9.5409e-14 7.91839e-13 0)
(7.47566e-14 1.03579e-12 0)
(1.42253e-13 1.03825e-12 0)
(-7.55712e-14 8.12335e-13 0)
(-1.87703e-13 8.09937e-13 0)
(1.84029e-13 9.3013e-13 0)
(1.36244e-13 8.51501e-13 0)
(2.02113e-13 7.45978e-13 0)
(3.53994e-13 5.9586e-13 0)
(-1.11941e-13 5.18077e-13 0)
(-3.19341e-14 5.09818e-13 0)
(3.31718e-13 4.12173e-13 0)
(2.11439e-13 5.1222e-13 0)
(9.75464e-14 5.27176e-13 0)
(3.96603e-13 7.35449e-13 0)
(2.77047e-13 6.48245e-13 0)
(-4.09742e-14 5.09967e-13 0)
(9.57645e-14 6.80257e-13 0)
(-6.05148e-14 6.89237e-13 0)
(-3.11541e-14 7.12474e-13 0)
(1.30376e-13 6.77119e-13 0)
(1.86712e-14 6.28084e-13 0)
(5.51061e-14 6.01981e-13 0)
(-3.60641e-14 4.94344e-13 0)
(-2.37236e-13 4.0719e-13 0)
(-2.49489e-13 3.81002e-13 0)
(-1.61129e-13 6.93853e-13 0)
(1.21894e-14 7.54869e-13 0)
(-6.47722e-14 5.60763e-13 0)
(-3.33195e-13 6.30159e-13 0)
(-1.20893e-13 6.35543e-13 0)
(-6.92463e-14 6.09708e-13 0)
(-1.89433e-13 4.24253e-13 0)
(6.47725e-14 3.80974e-13 0)
(3.32848e-14 6.18689e-13 0)
(2.33813e-14 8.70268e-13 0)
(4.55264e-13 9.62164e-13 0)
(3.95683e-13 7.91336e-13 0)
(2.23805e-13 7.21131e-13 0)
(3.65462e-13 9.0116e-13 0)
(1.35344e-13 6.80858e-13 0)
(-1.23644e-13 4.81066e-13 0)
(2.02588e-13 3.73455e-13 0)
(2.23136e-13 3.84258e-13 0)
(-2.84255e-14 2.92514e-13 0)
(-1.86051e-13 2.47614e-13 0)
(-1.57295e-13 3.89232e-13 0)
(-8.21174e-14 4.25692e-13 0)
(-3.692e-13 4.82932e-13 0)
(-5.58386e-13 4.42656e-13 0)
(-3.39288e-13 5.07691e-13 0)
(-1.54833e-13 7.74716e-13 0)
(1.17256e-13 8.80547e-13 0)
(2.31653e-13 8.31983e-13 0)
(1.56216e-13 7.73912e-13 0)
(3.99274e-15 8.16542e-13 0)
(-5.57005e-14 7.28768e-13 0)
(2.96972e-13 7.34288e-13 0)
(2.50865e-13 5.75438e-13 0)
(-2.10788e-13 5.19378e-13 0)
(-4.06447e-14 7.65966e-13 0)
(1.21803e-13 8.3718e-13 0)
(-5.03978e-14 7.7354e-13 0)
(1.82048e-13 7.06154e-13 0)
(2.75105e-13 5.0558e-13 0)
(1.90351e-15 5.57887e-13 0)
(-5.72068e-14 5.06606e-13 0)
(-1.40773e-14 5.01438e-13 0)
(-1.55315e-13 6.75938e-13 0)
(-9.58592e-14 6.56199e-13 0)
(6.66118e-14 6.66927e-13 0)
(-1.75143e-14 7.84748e-13 0)
(-5.41885e-15 8.34039e-13 0)
(-1.61105e-13 8.28162e-13 0)
(-2.57711e-13 8.09776e-13 0)
(-1.39135e-13 7.58653e-13 0)
(9.90788e-14 9.44549e-13 0)
(1.20447e-13 9.55726e-13 0)
(-9.15869e-14 7.33127e-13 0)
(-2.39974e-13 8.87108e-13 0)
(-1.86305e-14 9.89918e-13 0)
(-1.13103e-13 9.56004e-13 0)
(-4.66342e-14 8.82072e-13 0)
(-1.278e-13 6.10631e-13 0)
(-4.48439e-13 7.54401e-13 0)
(-1.04418e-13 6.44659e-13 0)
(3.00694e-13 6.71491e-13 0)
(9.83217e-14 6.98851e-13 0)
(-8.12176e-14 8.8056e-13 0)
(1.70672e-13 9.25463e-13 0)
(1.55985e-13 8.11968e-13 0)
(-2.46988e-14 8.5121e-13 0)
(2.84357e-13 8.65695e-13 0)
(3.17811e-13 8.19218e-13 0)
(4.16281e-14 8.06054e-13 0)
(-7.76817e-14 7.17194e-13 0)
(3.67815e-14 6.74611e-13 0)
(-9.7919e-14 6.4887e-13 0)
(-2.9872e-13 6.07147e-13 0)
(-1.76899e-13 7.4488e-13 0)
(-1.71852e-13 8.13433e-13 0)
(-7.02214e-14 8.62582e-13 0)
(1.22661e-14 6.61934e-13 0)
(-2.71439e-13 6.795e-13 0)
(-3.62383e-13 8.20087e-13 0)
(1.89221e-14 8.48237e-13 0)
(9.56366e-14 7.48866e-13 0)
(2.47016e-13 8.62747e-13 0)
(1.93911e-13 7.04955e-13 0)
(-2.54476e-13 6.12868e-13 0)
(2.17857e-14 8.18444e-13 0)
(3.19569e-13 7.87109e-13 0)
(1.24128e-13 6.32729e-13 0)
(7.43588e-16 6.68714e-13 0)
(2.67993e-13 7.06822e-13 0)
(3.53381e-13 4.30937e-13 0)
(2.05516e-13 4.78494e-13 0)
(2.37564e-13 4.50784e-13 0)
(2.32163e-13 6.12691e-13 0)
(2.00444e-13 5.19492e-13 0)
(5.5794e-14 3.2536e-13 0)
(4.92363e-14 3.71382e-13 0)
(-9.08082e-14 4.16628e-13 0)
(-3.55421e-13 5.84754e-13 0)
(3.50134e-13 3.90369e-13 0)
(3.08997e-13 3.7377e-13 0)
(2.62741e-13 3.52709e-13 0)
(4.21753e-13 3.08297e-13 0)
(5.79555e-13 4.62119e-13 0)
(5.68869e-13 3.43005e-13 0)
(2.69242e-13 1.81639e-13 0)
(-4.77689e-14 1.22743e-13 0)
(-1.10539e-13 6.57123e-14 0)
(-1.49088e-14 -2.25066e-14 0)
(2.2693e-14 -6.53844e-14 0)
(-2.02641e-13 1.16382e-13 0)
(-4.33403e-13 1.80613e-13 0)
(-4.13016e-13 1.91883e-13 0)
(-4.23607e-13 2.74552e-13 0)
(-3.70092e-13 2.49777e-13 0)
(-3.09405e-13 4.05022e-13 0)
(-5.505e-14 5.10863e-13 0)
(6.07993e-14 5.45181e-13 0)
(-1.14566e-13 6.42857e-13 0)
(-2.37328e-13 4.99079e-13 0)
(-8.71309e-14 7.88092e-13 0)
(-1.3123e-14 7.95588e-13 0)
(-7.60565e-14 6.05029e-13 0)
(1.00682e-13 5.46869e-13 0)
(1.77035e-15 6.10867e-13 0)
(1.1721e-13 5.8427e-13 0)
(8.26768e-14 5.51735e-13 0)
(-6.2077e-14 6.46468e-13 0)
(1.94098e-14 6.07154e-13 0)
(7.45892e-14 7.22852e-13 0)
(-3.0436e-15 7.5446e-13 0)
(-1.92347e-13 5.6281e-13 0)
(-5.47725e-14 4.89003e-13 0)
(1.26066e-13 5.33725e-13 0)
(2.27149e-14 4.66229e-13 0)
(-1.52684e-13 6.57751e-13 0)
(2.20249e-14 6.65404e-13 0)
(1.86446e-13 6.0856e-13 0)
(1.43375e-13 6.16032e-13 0)
(2.16922e-13 6.40117e-13 0)
(3.15458e-13 6.66606e-13 0)
(3.48738e-13 6.20254e-13 0)
(1.24602e-13 7.01356e-13 0)
(3.64e-14 8.04444e-13 0)
(-1.35478e-13 8.12998e-13 0)
(3.94415e-14 1.00295e-12 0)
(9.49914e-14 9.89274e-13 0)
(9.5788e-15 7.81669e-13 0)
(2.27694e-13 9.02565e-13 0)
(1.61896e-13 6.78081e-13 0)
(-1.83353e-13 4.24245e-13 0)
(-1.69122e-13 5.79575e-13 0)
(2.80445e-13 5.27221e-13 0)
(2.80759e-13 5.02597e-13 0)
(2.99097e-13 5.72605e-13 0)
(5.06742e-13 6.8451e-13 0)
(1.15198e-13 5.96286e-13 0)
(-1.86644e-14 6.35028e-13 0)
(2.74783e-14 6.44748e-13 0)
(-1.16586e-13 3.27223e-13 0)
(-1.58788e-14 4.4318e-13 0)
(4.71907e-14 3.73386e-13 0)
(-2.37777e-14 3.71433e-13 0)
(-1.42082e-14 3.64008e-13 0)
(-1.01453e-13 3.48459e-13 0)
(-2.17533e-13 3.77001e-13 0)
(-5.48273e-14 3.49159e-13 0)
(8.42015e-14 4.15444e-13 0)
(-6.57006e-14 5.79998e-13 0)
(-1.56344e-13 5.11069e-13 0)
(-2.33307e-13 6.05164e-13 0)
(-1.39598e-13 6.32354e-13 0)
(-1.73755e-13 5.30294e-13 0)
(-2.3454e-13 6.04705e-13 0)
(1.04549e-13 7.07896e-13 0)
(2.879e-13 3.75595e-13 0)
(3.10349e-13 6.41462e-13 0)
(2.76349e-13 7.66554e-13 0)
(1.28875e-13 5.89849e-13 0)
(2.56813e-13 5.63414e-13 0)
(4.61789e-13 5.99865e-13 0)
(1.10668e-13 4.96116e-13 0)
(-1.52732e-13 4.77752e-13 0)
(1.09886e-14 4.9728e-13 0)
(5.32047e-14 7.70833e-15 0)
(-1.75023e-13 -1.04324e-13 0)
(-1.47939e-13 -1.9463e-13 0)
(-1.54819e-14 -5.24745e-14 0)
(-8.45898e-14 -7.55082e-15 0)
(-3.44133e-13 1.6814e-13 0)
(-4.01623e-13 4.00994e-13 0)
(-7.70326e-14 4.60742e-13 0)
(9.82694e-14 4.82858e-13 0)
(4.12433e-14 5.52498e-13 0)
(6.21019e-14 4.65399e-13 0)
(9.08581e-14 4.15326e-13 0)
(-2.81555e-14 3.50362e-13 0)
(5.38791e-14 4.57309e-13 0)
(3.04761e-13 5.75072e-13 0)
(8.76757e-14 4.34586e-13 0)
(-3.44105e-14 4.77938e-13 0)
(1.78195e-13 6.02942e-13 0)
(6.02461e-14 5.70333e-13 0)
(-5.10121e-14 5.80446e-13 0)
(-5.52538e-15 5.28726e-13 0)
(1.02152e-13 3.95612e-13 0)
(5.81193e-14 4.17404e-13 0)
(-1.40933e-13 4.51756e-13 0)
(-2.8069e-14 4.66191e-13 0)
(-5.99279e-15 4.07847e-13 0)
(-9.85139e-14 5.0435e-13 0)
(1.19946e-14 4.97866e-13 0)
(-3.88233e-14 5.0486e-13 0)
(-1.42399e-14 4.80652e-13 0)
(-5.76023e-14 5.29003e-13 0)
(-1.96507e-13 6.55075e-13 0)
(1.88064e-14 8.05495e-13 0)
(1.99497e-13 7.37212e-13 0)
(-5.90649e-14 7.32473e-13 0)
(-3.25914e-14 6.76828e-13 0)
(1.19461e-15 8.18081e-13 0)
(-1.74014e-13 8.02355e-13 0)
(-1.95227e-13 6.27803e-13 0)
(-2.31957e-13 7.20476e-13 0)
(-2.7959e-13 5.57309e-13 0)
(-2.88989e-13 4.48156e-13 0)
(-1.23414e-13 7.60504e-13 0)
(2.87038e-13 8.07128e-13 0)
(2.2676e-13 7.72502e-13 0)
(1.09085e-13 8.51954e-13 0)
(6.58016e-14 8.16752e-13 0)
(6.00255e-14 7.27003e-13 0)
(3.6182e-14 6.78378e-13 0)
(7.78318e-14 7.06815e-13 0)
(1.00876e-13 3.20919e-13 0)
(-1.8885e-14 2.48564e-13 0)
(-1.50205e-14 2.83317e-13 0)
(5.91951e-14 2.69914e-13 0)
(-4.89496e-14 2.17997e-13 0)
(-9.08161e-14 4.17681e-13 0)
(-3.13695e-14 5.7372e-13 0)
(-1.19788e-13 5.53754e-13 0)
(-1.44117e-13 5.04262e-13 0)
(-1.44541e-13 4.76723e-13 0)
(-1.15299e-13 3.7474e-13 0)
(-1.40626e-13 7.09841e-13 0)
(-9.30368e-14 8.15974e-13 0)
(4.2528e-14 6.62128e-13 0)
(2.64676e-13 7.30793e-13 0)
(-4.0652e-14 5.7473e-13 0)
(-9.03796e-14 4.94685e-13 0)
(1.75406e-13 6.91701e-13 0)
(1.29316e-13 7.07313e-13 0)
(6.0503e-14 5.71373e-13 0)
(1.0208e-13 6.72967e-13 0)
(9.84842e-14 6.8406e-13 0)
(2.43563e-13 5.35739e-13 0)
(2.4228e-13 5.31492e-13 0)
(1.95282e-13 4.63876e-13 0)
(2.91814e-13 3.0783e-13 0)
(2.44594e-14 2.95789e-13 0)
(8.67026e-15 1.8677e-13 0)
(1.43655e-13 1.88887e-13 0)
(1.59312e-13 1.53064e-13 0)
(-5.6786e-14 4.04664e-13 0)
(1.76505e-13 -6.27035e-14 0)
(2.93426e-13 -1.00257e-13 0)
(4.41167e-13 4.26439e-14 0)
(5.31294e-13 8.33634e-14 0)
(4.96104e-13 1.62781e-14 0)
(3.23862e-13 1.0989e-15 0)
(1.83516e-13 -1.47815e-13 0)
(5.74283e-14 -1.11868e-13 0)
(-1.28028e-13 -1.50857e-13 0)
(-1.7411e-13 -2.66354e-13 0)
(-2.49611e-14 -3.79153e-13 0)
(-7.16441e-14 -2.77384e-13 0)
(-4.40825e-13 -1.34684e-13 0)
(-4.81942e-13 -2.40078e-13 0)
(-2.63948e-13 -1.93825e-13 0)
(-1.45262e-13 -9.27544e-14 0)
(-1.60801e-13 -3.7806e-14 0)
(-1.0482e-13 1.12481e-13 0)
(3.63678e-14 1.37062e-13 0)
(-1.49119e-13 3.88328e-13 0)
(-8.20797e-14 5.32022e-13 0)
(9.21531e-14 6.60531e-13 0)
(-1.80436e-13 4.53835e-13 0)
(-1.44451e-13 2.76705e-13 0)
(1.12736e-14 2.07674e-13 0)
(6.78853e-14 2.95355e-13 0)
(1.16101e-13 5.38951e-13 0)
(2.16009e-13 2.79528e-13 0)
(1.66394e-13 6.00391e-13 0)
(4.90857e-14 6.19582e-13 0)
(-1.10055e-14 4.44287e-13 0)
(-1.48736e-13 1.57778e-13 0)
(-1.1218e-13 5.02737e-14 0)
(1.32211e-14 6.11746e-14 0)
(-1.12227e-14 1.30281e-13 0)
(5.23493e-14 6.07869e-14 0)
(1.4415e-13 2.98367e-13 0)
(7.39151e-15 3.82801e-13 0)
(3.98094e-14 2.15877e-13 0)
(1.91781e-13 2.49934e-13 0)
(3.19315e-13 3.47723e-13 0)
(2.52091e-13 6.49939e-13 0)
(1.84016e-13 5.52537e-13 0)
(2.46335e-13 5.85762e-13 0)
(2.01511e-13 7.1813e-13 0)
(4.89746e-14 8.49477e-13 0)
(-2.70202e-14 9.05699e-13 0)
(-1.11613e-13 7.6548e-13 0)
(7.217e-15 6.65265e-13 0)
(2.61753e-13 6.06831e-13 0)
(-3.52861e-14 7.56241e-13 0)
(-2.40166e-13 6.4307e-13 0)
(-2.94184e-14 5.87849e-13 0)
(1.41718e-13 5.60329e-13 0)
(1.87348e-13 3.28061e-13 0)
(3.10502e-13 3.63368e-13 0)
(4.2927e-13 2.8651e-13 0)
(1.75089e-13 2.57371e-13 0)
(-8.23743e-14 4.87775e-13 0)
(-3.01236e-13 2.9645e-13 0)
(-2.44016e-13 4.75715e-14 0)
(5.97061e-14 1.59919e-13 0)
(1.64976e-15 6.27556e-14 0)
(-3.4891e-14 -9.01269e-14 0)
(5.00513e-14 1.09396e-14 0)
(1.03838e-13 2.20489e-13 0)
(-1.10231e-13 3.87352e-13 0)
(-2.37231e-13 3.66103e-13 0)
(1.14303e-14 1.14911e-13 0)
(1.48735e-13 3.15552e-13 0)
(-3.27231e-15 4.82858e-13 0)
(-1.66548e-13 3.43881e-13 0)
(-2.21122e-13 4.19898e-13 0)
(-1.35111e-13 5.15878e-13 0)
(-2.43046e-14 5.79179e-13 0)
(-8.40843e-14 6.42142e-13 0)
(5.13887e-14 3.88002e-13 0)
(4.03029e-13 3.70397e-13 0)
(3.67503e-13 4.64714e-13 0)
(2.6215e-13 5.46161e-13 0)
(2.67566e-13 6.6841e-13 0)
(2.15537e-13 3.55826e-13 0)
(-3.37531e-14 3.13665e-13 0)
(-1.4867e-13 3.03225e-13 0)
(-2.92698e-13 2.89795e-13 0)
(-3.50207e-13 -6.80619e-14 0)
(-2.23815e-13 -8.78913e-14 0)
(-9.26478e-14 2.49178e-15 0)
(3.50744e-14 -5.57621e-14 0)
(1.08216e-13 -1.94558e-13 0)
(7.26152e-14 3.76411e-14 0)
(-1.83152e-13 2.66732e-13 0)
(-2.8763e-13 1.48757e-13 0)
(-6.63491e-14 4.3487e-14 0)
(1.0446e-13 1.10839e-13 0)
(1.22736e-13 1.14101e-13 0)
(4.88875e-14 1.44817e-13 0)
(-1.62481e-14 1.98111e-13 0)
(1.5385e-13 3.08559e-13 0)
(3.76816e-13 3.20883e-13 0)
(1.88226e-13 4.37993e-13 0)
(-1.0096e-13 6.61723e-13 0)
(1.42736e-14 3.20784e-13 0)
(1.24575e-13 3.53274e-13 0)
(-3.20992e-14 4.19855e-13 0)
(-9.12991e-14 2.05624e-13 0)
(5.15453e-14 1.68616e-13 0)
(4.23695e-14 2.2448e-13 0)
(-6.18572e-14 2.71845e-13 0)
(-8.78162e-14 3.68208e-13 0)
(-2.76095e-14 1.22311e-13 0)
(9.2187e-14 3.71314e-13 0)
(2.07086e-14 2.57048e-13 0)
(-6.74032e-14 -3.14592e-14 0)
(-1.41766e-14 -2.84168e-14 0)
(4.9555e-14 -4.05227e-14 0)
(9.23044e-14 3.66389e-13 0)
(-7.2184e-14 4.70958e-13 0)
(2.87873e-14 3.96356e-13 0)
(5.38975e-14 5.83482e-13 0)
(-3.9795e-16 7.61797e-13 0)
(-8.96219e-14 5.06772e-13 0)
(-2.83352e-13 3.63473e-13 0)
(-1.6128e-13 3.44548e-13 0)
(-9.44038e-14 4.05379e-13 0)
(-3.18258e-13 6.63884e-13 0)
(-1.99677e-13 5.22162e-13 0)
(1.81266e-13 7.99319e-13 0)
(2.23631e-13 9.89452e-13 0)
(1.1791e-13 8.8916e-13 0)
(-6.64032e-14 7.00326e-13 0)
(-5.50936e-14 4.13508e-13 0)
(-1.125e-13 4.52216e-13 0)
(-1.28861e-13 2.9698e-13 0)
(-4.43893e-14 1.98534e-13 0)
(-4.42561e-14 -6.18054e-14 0)
(8.47077e-14 2.06261e-15 0)
(-8.13882e-15 1.21439e-13 0)
(-5.59752e-14 4.6727e-14 0)
(5.99873e-14 -8.85155e-14 0)
(1.56257e-13 2.11415e-13 0)
(-2.75182e-14 1.85595e-13 0)
(-1.98936e-13 5.31189e-14 0)
(-1.52778e-13 6.56356e-14 0)
(-2.11672e-13 2.21724e-13 0)
(-4.94856e-14 1.81149e-13 0)
(8.91961e-14 2.9113e-13 0)
(-9.94322e-14 4.16705e-13 0)
(6.6597e-15 5.8133e-13 0)
(2.45119e-13 3.41967e-13 0)
(9.572e-15 4.58236e-13 0)
(-7.56656e-14 7.07702e-13 0)
(2.43415e-13 5.08944e-13 0)
(2.0124e-13 6.7678e-13 0)
(1.00417e-13 6.37341e-13 0)
(1.00097e-13 5.53738e-13 0)
(1.09019e-13 3.34752e-13 0)
(1.78023e-13 4.53446e-13 0)
(1.46509e-13 1.48181e-13 0)
(3.68076e-14 3.30048e-13 0)
(-2.40742e-16 -8.33836e-15 0)
(1.18638e-13 2.82477e-14 0)
(-8.42833e-15 3.02366e-14 0)
(-3.79392e-14 -1.56504e-13 0)
(9.92808e-14 -1.78088e-13 0)
(1.82909e-13 -9.31403e-14 0)
(1.91787e-13 2.4853e-14 0)
(3.93703e-13 6.63449e-14 0)
(4.76151e-13 -7.08547e-14 0)
(4.41127e-13 3.38282e-14 0)
(4.91977e-13 -8.46024e-14 0)
(3.59636e-13 3.88022e-14 0)
(1.501e-13 -6.35903e-14 0)
(-1.62354e-14 2.39227e-14 0)
(-1.91406e-13 4.32105e-14 0)
(-1.93312e-13 -3.03701e-14 0)
(-7.39501e-14 -1.55738e-13 0)
(-5.46199e-15 -1.98822e-13 0)
(-3.30107e-13 -1.65993e-13 0)
(-4.23874e-13 -9.5033e-15 0)
(-2.81602e-13 1.96911e-14 0)
(-2.1927e-13 -7.48152e-15 0)
(-8.44884e-14 -7.53916e-14 0)
(9.05344e-14 4.09702e-14 0)
(3.02317e-13 6.47539e-14 0)
(1.71285e-13 3.92673e-13 0)
(-1.94339e-14 6.23633e-13 0)
(-1.43186e-13 4.43955e-13 0)
(-4.43407e-13 2.86551e-13 0)
(-2.54914e-13 1.98384e-13 0)
(5.41048e-14 2.32509e-13 0)
(2.3206e-13 2.19014e-13 0)
(5.91143e-14 1.83528e-13 0)
(1.56053e-13 6.43007e-14 0)
(2.54272e-13 1.71095e-13 0)
(-6.36132e-14 1.11438e-13 0)
(-2.86165e-13 1.39041e-13 0)
(-3.88012e-13 6.34468e-14 0)
(-2.72919e-13 -4.40479e-14 0)
(5.79048e-14 -1.04819e-13 0)
(1.06652e-13 -3.03038e-13 0)
(1.67644e-13 -2.14206e-13 0)
(1.65664e-13 -6.43504e-14 0)
(-1.08045e-13 -3.02369e-14 0)
(2.18481e-14 -5.37475e-14 0)
(3.43985e-13 -7.91604e-15 0)
(6.09004e-13 2.28825e-13 0)
(5.28335e-13 4.03385e-13 0)
(2.6756e-13 5.04412e-13 0)
(2.90628e-13 4.52452e-13 0)
(1.58308e-13 6.55598e-13 0)
(-4.40742e-14 6.52883e-13 0)
(-1.19433e-13 5.52925e-13 0)
(-1.64653e-13 3.73497e-13 0)
(-8.86171e-14 4.51403e-13 0)
(1.85221e-13 3.68468e-13 0)
(2.17706e-13 5.02729e-13 0)
(-1.73593e-13 7.03318e-13 0)
(-2.48197e-13 6.69079e-13 0)
(-2.58901e-14 5.98235e-13 0)
(3.31509e-14 4.74729e-13 0)
(2.65007e-13 2.616e-13 0)
(4.83768e-13 1.13119e-13 0)
(3.02691e-13 9.3668e-14 0)
(-1.77967e-14 -7.46028e-15 0)
(-3.80335e-13 -1.13943e-13 0)
(-2.2812e-13 -5.7177e-14 0)
(2.25418e-14 -3.74404e-14 0)
(-1.89636e-13 -1.53966e-15 0)
(-9.97662e-14 -3.64164e-14 0)
(2.15784e-13 -1.93482e-13 0)
(1.96812e-13 -7.4123e-15 0)
(-1.17034e-13 -4.45322e-14 0)
(-2.7961e-13 9.60917e-14 0)
(2.88437e-14 5.71086e-14 0)
(2.73329e-13 1.86575e-13 0)
(-1.17302e-13 2.60887e-13 0)
(-2.60813e-13 1.74666e-13 0)
(-3.26377e-15 1.0107e-13 0)
(-8.19158e-14 2.09798e-13 0)
(-5.39312e-14 3.09314e-13 0)
(-6.01671e-14 3.53665e-13 0)
(4.10291e-14 5.40445e-13 0)
(3.78379e-13 3.42621e-13 0)
(4.09044e-13 2.49897e-13 0)
(2.13215e-13 3.71769e-13 0)
(-6.96853e-15 3.0398e-13 0)
(6.8829e-14 -1.8073e-14 0)
(1.1041e-13 8.37212e-15 0)
(-1.28601e-13 9.88606e-14 0)
(-4.51549e-13 -1.64137e-14 0)
(-3.36377e-13 -4.15034e-14 0)
(-1.25165e-13 9.63865e-14 0)
(-1.30499e-13 1.70588e-13 0)
(-1.39089e-13 3.44628e-14 0)
(-7.03948e-15 -1.87797e-13 0)
(7.44485e-14 -8.51029e-14 0)
(-3.0192e-13 -1.73427e-13 0)
(-2.74551e-13 5.64173e-15 0)
(-9.47211e-15 -5.13377e-14 0)
(6.51742e-14 8.74764e-14 0)
(8.39574e-14 1.78218e-13 0)
(1.57412e-13 2.95797e-13 0)
(1.3633e-13 2.97983e-13 0)
(1.57348e-13 3.50909e-13 0)
(3.85001e-13 3.60782e-13 0)
(3.60753e-13 4.12826e-13 0)
(-1.83398e-13 4.16899e-13 0)
(-6.131e-14 2.72913e-13 0)
(2.21273e-13 4.18933e-13 0)
(-2.02951e-13 3.75874e-13 0)
(-2.60731e-13 2.89515e-13 0)
(6.52279e-14 -2.53366e-14 0)
(1.13668e-13 -2.16155e-13 0)
(-1.58276e-14 -1.88668e-13 0)
(-1.90362e-13 -1.21757e-13 0)
(-6.90016e-14 -1.38436e-13 0)
(3.77291e-14 -1.18663e-14 0)
(-2.75855e-13 -4.79144e-14 0)
(-2.53815e-13 -2.11413e-13 0)
(-1.91375e-14 -3.39935e-13 0)
(2.43255e-13 -2.54511e-13 0)
(2.92252e-13 -2.04916e-13 0)
(1.29636e-13 6.2769e-14 0)
(3.06331e-13 2.55447e-13 0)
(1.7863e-13 4.30706e-13 0)
(-1.4498e-13 4.94881e-13 0)
(-3.43576e-13 3.70246e-13 0)
(-2.92129e-13 1.38135e-13 0)
(-1.55411e-13 2.94787e-13 0)
(3.71485e-14 3.30143e-13 0)
(-1.39273e-13 4.95959e-13 0)
(-1.34909e-13 7.3957e-13 0)
(2.34004e-13 5.89844e-13 0)
(2.59932e-13 5.62868e-13 0)
(4.94215e-15 4.1825e-13 0)
(-3.11289e-13 3.22432e-13 0)
(-1.7938e-13 2.41124e-13 0)
(-1.00287e-13 -1.49435e-14 0)
(-2.08846e-13 -4.69902e-14 0)
(-2.35097e-13 -1.94357e-13 0)
(-5.3365e-14 -1.80401e-13 0)
(1.68825e-13 -5.19766e-14 0)
(4.22663e-14 -1.11061e-13 0)
(-1.07693e-13 6.96126e-15 0)
(1.31155e-13 -1.22903e-13 0)
(2.53876e-13 5.50439e-14 0)
(-1.94186e-13 7.46852e-14 0)
(-2.94898e-13 1.33656e-13 0)
(-5.12472e-14 8.06645e-14 0)
(-5.29862e-14 3.81734e-13 0)
(-9.88573e-14 5.35402e-13 0)
(3.18831e-14 3.56203e-13 0)
(1.24799e-13 1.92821e-13 0)
(-1.11317e-13 3.53639e-13 0)
(5.29106e-14 2.62484e-13 0)
(2.48028e-13 1.8665e-13 0)
(-2.69561e-14 3.02152e-13 0)
(1.69633e-13 3.60904e-13 0)
(2.81658e-13 3.83783e-13 0)
(-4.85781e-14 4.94484e-13 0)
(-1.96941e-13 2.41704e-13 0)
(3.34907e-14 4.90374e-14 0)
(6.88547e-14 2.94744e-14 0)
(1.04896e-13 5.03954e-14 0)
(3.1885e-14 -9.87152e-14 0)
(-5.55811e-14 -2.50224e-13 0)
(6.63872e-14 -3.7377e-13 0)
(-1.8959e-13 -3.75862e-13 0)
(3.23664e-14 -4.96545e-13 0)
(2.64663e-13 -5.25959e-13 0)
(2.29314e-13 -5.70981e-13 0)
(2.7133e-13 9.22041e-14 0)
(2.1248e-13 1.18723e-13 0)
(4.66134e-13 1.19316e-14 0)
(5.01706e-13 2.06698e-13 0)
(4.45014e-13 2.55016e-13 0)
(3.42955e-13 4.942e-14 0)
(1.92494e-13 -9.75732e-14 0)
(1.68385e-13 9.54179e-14 0)
(-1.26235e-13 1.28856e-13 0)
(-3.41053e-13 6.91222e-14 0)
(-2.59677e-13 -4.90058e-15 0)
(-8.68405e-14 -3.11547e-14 0)
(-2.73025e-13 -6.87417e-14 0)
(-3.01941e-13 1.71731e-13 0)
(-2.32045e-13 3.1494e-13 0)
(-1.80173e-13 3.30383e-13 0)
(-1.25919e-13 1.5511e-13 0)
(1.4736e-14 8.7096e-14 0)
(3.51903e-13 7.9601e-14 0)
(3.43783e-13 1.83258e-13 0)
(-1.44149e-14 2.4536e-13 0)
(-1.74243e-13 3.10747e-14 0)
(-3.95894e-13 3.04665e-14 0)
(-2.77382e-13 2.84657e-13 0)
(-1.37805e-14 1.96486e-13 0)
(5.98059e-14 4.82343e-14 0)
(-6.23311e-14 -1.14897e-13 0)
(1.87443e-13 5.4978e-14 0)
(1.81256e-13 4.15236e-16 0)
(-4.79694e-14 -2.13824e-14 0)
(-1.25946e-13 -6.28388e-14 0)
(-3.29236e-13 -1.08074e-13 0)
(-2.74752e-13 -5.78506e-14 0)
(-1.23958e-13 -3.55452e-15 0)
(-8.07554e-14 -1.15534e-13 0)
(1.82106e-13 -1.54129e-14 0)
(2.14942e-13 -1.38988e-13 0)
(2.87723e-14 -1.12405e-14 0)