/*--------------------------------*- C++ -*----------------------------------*\
  =========                 |
  \\      /  F ield         | OpenFOAM: The Open Source CFD Toolbox
   \\    /   O peration     | Website:  https://openfoam.org
    \\  /    A nd           | Version:  13
     \\/     M anipulation  |
\*---------------------------------------------------------------------------*/
FoamFile
{
    format      ascii;
    class       volScalarField;
    location    "0.0014";
    object      CH4;
}
// * * * * * * * * * * * * * * * * * * * * * * * * * * * * * * * * * * * * * //

dimensions      [];

internalField   nonuniform List<scalar> 
33334
(
2.77014e-15
2.87672e-15
3.14476e-15
3.65727e-15
4.57113e-15
6.20433e-15
9.21077e-15
1.50089e-14
2.68284e-14
5.2275e-14
1.09934e-13
2.46489e-13
5.81591e-13
1.42598e-12
3.59374e-12
9.22995e-12
2.4001e-11
6.28557e-11
1.6516e-10
4.34899e-10
1.14932e-09
3.05633e-09
8.2024e-09
2.23542e-08
6.23322e-08
1.78537e-07
5.27437e-07
1.64449e-06
5.70077e-06
2.40537e-05
0.000134777
0.00121867
0.0128412
0.035687
0.041635
0.0424574
0.0430154
0.043505
0.0439232
0.0442828
0.0445979
0.0448775
0.0451282
0.0453549
0.0455613
0.0457505
0.0459247
0.0460859
0.0462356
0.0463753
0.0465059
0.0466285
0.0467439
0.0468528
0.0469558
0.0470535
0.0471463
0.0472347
0.0473191
0.0473997
0.0474768
0.0475508
0.0476218
0.0476901
0.0477558
0.0478192
0.0478803
0.0479393
0.0479964
0.0480516
0.0481051
0.0481569
0.0482072
0.048256
0.0483034
0.0483495
0.0483944
0.048438
0.0484805
0.0485219
0.0485623
0.0486017
0.0486401
0.0486776
0.0487143
0.0487501
0.0487851
0.0488193
0.0488528
0.0488856
0.0489178
0.0489492
0.04898
0.0490102
0.0490399
0.0490689
0.0490974
0.0491254
0.0491528
0.0491797
0.0492062
0.0492322
0.0492577
0.0492828
0.0493074
0.0493317
0.0493555
0.0493789
0.049402
0.0494247
0.049447
0.0494691
0.049491
0.0495124
0.0495333
0.0495535
0.0495728
0.0495916
0.0496107
0.0496317
0.0496569
0.0496893
0.0497316
0.0497841
0.0498429
0.0498997
0.0499456
0.049976
0.0499919
0.0499981
0.0499997
0.05
0.05
0.05
0.05
0.05
0.05
0.05
0.05
0.05
0.05
0.05
0.05
0.05
0.05
0.05
0.05
0.05
0.05
0.05
0.05
0.05
0.05
0.05
0.05
0.05
0.05
0.05
0.05
0.05
0.05
0.05
0.05
0.05
0.05
0.05
2.87672e-15
2.98701e-15
3.26428e-15
3.79449e-15
4.74002e-15
6.42886e-15
9.53849e-15
1.55386e-14
2.77454e-14
5.39897e-14
1.13383e-13
2.53868e-13
5.98159e-13
1.46453e-12
3.68561e-12
9.45229e-12
2.45439e-11
6.41842e-11
1.68403e-10
4.42786e-10
1.16843e-09
3.10264e-09
8.31464e-09
2.26273e-08
6.30055e-08
1.80209e-07
5.31644e-07
1.65549e-06
5.73228e-06
2.41611e-05
0.00013524
0.00122136
0.0128518
0.035691
0.0416351
0.0424574
0.0430153
0.043505
0.0439231
0.0442828
0.0445978
0.0448774
0.0451281
0.0453548
0.0455613
0.0457504
0.0459247
0.0460859
0.0462356
0.0463753
0.0465059
0.0466285
0.0467439
0.0468528
0.0469558
0.0470535
0.0471463
0.0472347
0.047319
0.0473996
0.0474768
0.0475508
0.0476218
0.0476901
0.0477558
0.0478192
0.0478803
0.0479393
0.0479964
0.0480516
0.0481051
0.0481569
0.0482072
0.048256
0.0483034
0.0483495
0.0483943
0.048438
0.0484805
0.0485219
0.0485623
0.0486016
0.0486401
0.0486776
0.0487142
0.04875
0.0487851
0.0488193
0.0488528
0.0488856
0.0489177
0.0489492
0.04898
0.0490102
0.0490398
0.0490689
0.0490974
0.0491253
0.0491528
0.0491797
0.0492062
0.0492321
0.0492577
0.0492827
0.0493074
0.0493316
0.0493555
0.0493789
0.0494019
0.0494246
0.049447
0.0494691
0.0494909
0.0495124
0.0495333
0.0495534
0.0495728
0.0495916
0.0496107
0.0496316
0.0496568
0.0496892
0.0497315
0.0497841
0.0498429
0.0498996
0.0499455
0.049976
0.0499919
0.0499981
0.0499997
0.05
0.05
0.05
0.05
0.05
0.05
0.05
0.05
0.05
0.05
0.05
0.05
0.05
0.05
0.05
0.05
0.05
0.05
0.05
0.05
0.05
0.05
0.05
0.05
0.05
0.05
0.05
0.05
0.05
0.05
0.05
0.05
0.05
0.05
0.05
3.14476e-15
3.26428e-15
3.56456e-15
4.13846e-15
5.16149e-15
6.98769e-15
1.03466e-14
1.68112e-14
2.99323e-14
5.80717e-14
1.21586e-13
2.71406e-13
6.37536e-13
1.55619e-12
3.90442e-12
9.98318e-12
2.58441e-11
6.7381e-11
1.7626e-10
4.6206e-10
1.21569e-09
3.21882e-09
8.60123e-09
2.334e-08
6.48134e-08
1.8487e-07
5.43935e-07
1.6895e-06
5.83628e-06
2.45433e-05
0.000137037
0.00123321
0.01291
0.0357158
0.0416359
0.0424573
0.0430153
0.043505
0.0439231
0.0442828
0.0445978
0.0448774
0.0451281
0.0453548
0.0455613
0.0457504
0.0459246
0.0460858
0.0462356
0.0463753
0.0465059
0.0466285
0.0467439
0.0468528
0.0469558
0.0470534
0.0471463
0.0472347
0.047319
0.0473996
0.0474768
0.0475507
0.0476218
0.04769
0.0477558
0.0478191
0.0478803
0.0479393
0.0479964
0.0480516
0.0481051
0.0481569
0.0482072
0.048256
0.0483034
0.0483495
0.0483943
0.048438
0.0484804
0.0485219
0.0485622
0.0486016
0.04864
0.0486775
0.0487142
0.04875
0.048785
0.0488193
0.0488528
0.0488856
0.0489177
0.0489492
0.04898
0.0490102
0.0490398
0.0490689
0.0490974
0.0491253
0.0491528
0.0491797
0.0492061
0.0492321
0.0492576
0.0492827
0.0493074
0.0493316
0.0493554
0.0493789
0.0494019
0.0494246
0.049447
0.0494691
0.0494909
0.0495123
0.0495332
0.0495534
0.0495728
0.0495916
0.0496107
0.0496316
0.0496568
0.0496892
0.0497314
0.049784
0.0498428
0.0498995
0.0499455
0.049976
0.0499919
0.0499981
0.0499997
0.05
0.05
0.05
0.05
0.05
0.05
0.05
0.05
0.05
0.05
0.05
0.05
0.05
0.05
0.05
0.05
0.05
0.05
0.05
0.05
0.05
0.05
0.05
0.05
0.05
0.05
0.05
0.05
0.05
0.05
0.05
0.05
0.05
0.05
0.05
3.65727e-15
3.79449e-15
4.13846e-15
4.79466e-15
5.96303e-15
8.04528e-15
1.18645e-14
1.91899e-14
3.40079e-14
6.56625e-14
1.36808e-13
3.03888e-13
7.10348e-13
1.72552e-12
4.30853e-12
1.09644e-11
2.82518e-11
7.33195e-11
1.90928e-10
4.98303e-10
1.3054e-09
3.44186e-09
9.15973e-09
2.47572e-08
6.84927e-08
1.94636e-07
5.70638e-07
1.7665e-06
6.08211e-06
2.54824e-05
0.000141609
0.00126532
0.0130849
0.035794
0.0416391
0.0424573
0.0430154
0.0435051
0.0439232
0.0442828
0.0445978
0.0448774
0.0451281
0.0453548
0.0455613
0.0457504
0.0459246
0.0460858
0.0462356
0.0463752
0.0465059
0.0466285
0.0467439
0.0468527
0.0469558
0.0470534
0.0471463
0.0472347
0.047319
0.0473996
0.0474768
0.0475507
0.0476218
0.04769
0.0477558
0.0478191
0.0478802
0.0479393
0.0479963
0.0480516
0.048105
0.0481569
0.0482072
0.048256
0.0483034
0.0483495
0.0483943
0.0484379
0.0484804
0.0485218
0.0485622
0.0486016
0.04864
0.0486775
0.0487142
0.04875
0.048785
0.0488193
0.0488528
0.0488856
0.0489177
0.0489491
0.04898
0.0490102
0.0490398
0.0490688
0.0490973
0.0491253
0.0491527
0.0491797
0.0492061
0.0492321
0.0492576
0.0492827
0.0493074
0.0493316
0.0493554
0.0493788
0.0494019
0.0494246
0.049447
0.0494691
0.0494909
0.0495123
0.0495332
0.0495534
0.0495727
0.0495916
0.0496107
0.0496316
0.0496567
0.0496891
0.0497314
0.0497839
0.0498427
0.0498995
0.0499454
0.0499759
0.0499919
0.0499981
0.0499997
0.05
0.05
0.05
0.05
0.05
0.05
0.05
0.05
0.05
0.05
0.05
0.05
0.05
0.05
0.05
0.05
0.05
0.05
0.05
0.05
0.05
0.05
0.05
0.05
0.05
0.05
0.05
0.05
0.05
0.05
0.05
0.05
0.05
0.05
0.05
4.57113e-15
4.74002e-15
5.16149e-15
5.96303e-15
7.38721e-15
9.91866e-15
1.45445e-14
2.3379e-14
4.11602e-14
7.89294e-14
1.63301e-13
3.60189e-13
8.36069e-13
2.01691e-12
5.00205e-12
1.26451e-11
3.23723e-11
8.34859e-11
2.1608e-10
5.60662e-10
1.46056e-09
3.83035e-09
1.01421e-08
2.72831e-08
7.51511e-08
2.12635e-07
6.20939e-07
1.9149e-06
6.5657e-06
2.73555e-05
0.000150834
0.00133285
0.0134728
0.0359696
0.0416473
0.0424579
0.043016
0.0435056
0.0439235
0.0442831
0.044598
0.0448775
0.0451282
0.0453549
0.0455613
0.0457504
0.0459247
0.0460859
0.0462356
0.0463753
0.0465059
0.0466285
0.0467439
0.0468528
0.0469558
0.0470534
0.0471463
0.0472347
0.047319
0.0473996
0.0474768
0.0475507
0.0476218
0.04769
0.0477558
0.0478191
0.0478802
0.0479393
0.0479963
0.0480516
0.048105
0.0481569
0.0482072
0.048256
0.0483034
0.0483495
0.0483943
0.0484379
0.0484804
0.0485218
0.0485622
0.0486016
0.04864
0.0486775
0.0487142
0.04875
0.048785
0.0488193
0.0488528
0.0488856
0.0489177
0.0489491
0.04898
0.0490102
0.0490398
0.0490688
0.0490973
0.0491253
0.0491527
0.0491797
0.0492061
0.0492321
0.0492576
0.0492827
0.0493073
0.0493316
0.0493554
0.0493788
0.0494019
0.0494246
0.049447
0.0494691
0.0494909
0.0495123
0.0495332
0.0495534
0.0495727
0.0495916
0.0496106
0.0496316
0.0496567
0.0496891
0.0497314
0.0497839
0.0498427
0.0498994
0.0499454
0.0499759
0.0499919
0.0499981
0.0499997
0.05
0.05
0.05
0.05
0.05
0.05
0.05
0.05
0.05
0.05
0.05
0.05
0.05
0.05
0.05
0.05
0.05
0.05
0.05
0.05
0.05
0.05
0.05
0.05
0.05
0.05
0.05
0.05
0.05
0.05
0.05
0.05
0.05
0.05
0.05
6.20433e-15
6.42886e-15
6.98769e-15
8.04528e-15
9.91866e-15
1.32371e-14
1.92733e-14
3.0735e-14
5.36462e-14
1.01942e-13
2.0895e-13
4.56546e-13
1.04984e-12
2.50934e-12
6.16753e-12
1.5456e-11
3.9237e-11
1.00375e-10
2.57795e-10
6.64044e-10
1.71814e-09
4.47722e-09
1.1786e-08
3.1539e-08
8.64563e-08
2.43474e-07
7.0797e-07
2.17372e-06
7.4133e-06
3.06375e-05
0.000167018
0.0014544
0.0141859
0.0362859
0.0416634
0.0424599
0.0430179
0.0435072
0.0439246
0.0442839
0.0445986
0.044878
0.0451285
0.0453551
0.0455615
0.0457506
0.0459248
0.0460859
0.0462357
0.0463753
0.0465059
0.0466285
0.0467439
0.0468528
0.0469558
0.0470535
0.0471463
0.0472347
0.047319
0.0473996
0.0474768
0.0475507
0.0476218
0.04769
0.0477558
0.0478191
0.0478802
0.0479393
0.0479963
0.0480516
0.048105
0.0481569
0.0482072
0.048256
0.0483034
0.0483495
0.0483943
0.0484379
0.0484804
0.0485218
0.0485622
0.0486016
0.04864
0.0486775
0.0487142
0.04875
0.048785
0.0488193
0.0488528
0.0488856
0.0489177
0.0489491
0.04898
0.0490102
0.0490398
0.0490688
0.0490973
0.0491253
0.0491527
0.0491797
0.0492061
0.0492321
0.0492576
0.0492827
0.0493073
0.0493316
0.0493554
0.0493788
0.0494019
0.0494246
0.049447
0.0494691
0.0494909
0.0495123
0.0495332
0.0495534
0.0495727
0.0495915
0.0496106
0.0496316
0.0496567
0.0496891
0.0497313
0.0497839
0.0498427
0.0498994
0.0499454
0.0499759
0.0499919
0.0499981
0.0499997
0.05
0.05
0.05
0.05
0.05
0.05
0.05
0.05
0.05
0.05
0.05
0.05
0.05
0.05
0.05
0.05
0.05
0.05
0.05
0.05
0.05
0.05
0.05
0.05
0.05
0.05
0.05
0.05
0.05
0.05
0.05
0.05
0.05
0.05
0.05
9.21077e-15
9.53849e-15
1.03466e-14
1.18645e-14
1.45445e-14
1.92733e-14
2.78254e-14
4.39447e-14
7.58875e-14
1.42573e-13
2.88807e-13
6.23536e-13
1.41688e-12
3.34732e-12
8.13433e-12
2.01637e-11
5.06572e-11
1.28311e-10
3.26469e-10
8.33634e-10
2.1398e-09
5.53568e-09
1.44783e-08
3.85173e-08
1.05014e-07
2.94198e-07
8.51176e-07
2.59838e-06
8.79766e-06
3.59837e-05
0.000193365
0.00165749
0.0153372
0.0367705
0.0416898
0.0424648
0.0430224
0.0435107
0.0439272
0.0442858
0.0446
0.0448791
0.0451294
0.0453558
0.045562
0.045751
0.0459251
0.0460862
0.0462359
0.0463755
0.0465061
0.0466287
0.046744
0.0468529
0.0469558
0.0470535
0.0471463
0.0472347
0.0473191
0.0473996
0.0474768
0.0475508
0.0476218
0.0476901
0.0477558
0.0478191
0.0478803
0.0479393
0.0479964
0.0480516
0.0481051
0.0481569
0.0482072
0.048256
0.0483034
0.0483495
0.0483943
0.0484379
0.0484804
0.0485218
0.0485622
0.0486016
0.04864
0.0486775
0.0487142
0.04875
0.048785
0.0488193
0.0488528
0.0488856
0.0489177
0.0489491
0.04898
0.0490102
0.0490398
0.0490688
0.0490973
0.0491253
0.0491527
0.0491797
0.0492061
0.0492321
0.0492576
0.0492827
0.0493073
0.0493316
0.0493554
0.0493788
0.0494019
0.0494246
0.049447
0.0494691
0.0494909
0.0495123
0.0495332
0.0495534
0.0495727
0.0495915
0.0496106
0.0496316
0.0496567
0.0496891
0.0497313
0.0497839
0.0498427
0.0498994
0.0499454
0.0499759
0.0499919
0.0499981
0.0499997
0.05
0.05
0.05
0.05
0.05
0.05
0.05
0.05
0.05
0.05
0.05
0.05
0.05
0.05
0.05
0.05
0.05
0.05
0.05
0.05
0.05
0.05
0.05
0.05
0.05
0.05
0.05
0.05
0.05
0.05
0.05
0.05
0.05
0.05
0.05
1.50089e-14
1.55386e-14
1.68112e-14
1.91899e-14
2.3379e-14
3.0735e-14
4.39447e-14
6.86223e-14
1.17018e-13
2.16882e-13
4.33147e-13
9.2176e-13
2.06454e-12
4.80869e-12
1.15262e-11
2.81987e-11
6.99662e-11
1.75142e-10
4.40719e-10
1.1139e-09
2.83295e-09
7.26879e-09
1.88732e-08
4.98712e-08
1.35066e-07
3.75994e-07
1.08076e-06
3.27295e-06
1.09795e-05
4.4405e-05
0.00023467
0.00199015
0.0170144
0.0374147
0.0417272
0.0424743
0.0430307
0.0435173
0.0439321
0.0442895
0.0446029
0.0448814
0.0451312
0.0453572
0.0455632
0.045752
0.0459259
0.0460869
0.0462364
0.0463759
0.0465065
0.046629
0.0467443
0.0468531
0.0469561
0.0470537
0.0471465
0.0472349
0.0473192
0.0473997
0.0474769
0.0475508
0.0476218
0.0476901
0.0477558
0.0478192
0.0478803
0.0479393
0.0479964
0.0480516
0.0481051
0.0481569
0.0482072
0.048256
0.0483034
0.0483495
0.0483943
0.0484379
0.0484804
0.0485218
0.0485622
0.0486016
0.04864
0.0486775
0.0487142
0.04875
0.048785
0.0488193
0.0488528
0.0488856
0.0489177
0.0489491
0.04898
0.0490102
0.0490398
0.0490688
0.0490973
0.0491253
0.0491527
0.0491797
0.0492061
0.0492321
0.0492576
0.0492827
0.0493073
0.0493316
0.0493554
0.0493788
0.0494019
0.0494246
0.049447
0.0494691
0.0494909
0.0495123
0.0495332
0.0495534
0.0495727
0.0495915
0.0496106
0.0496316
0.0496567
0.0496891
0.0497313
0.0497839
0.0498427
0.0498994
0.0499454
0.0499759
0.0499919
0.0499981
0.0499997
0.05
0.05
0.05
0.05
0.05
0.05
0.05
0.05
0.05
0.05
0.05
0.05
0.05
0.05
0.05
0.05
0.05
0.05
0.05
0.05
0.05
0.05
0.05
0.05
0.05
0.05
0.05
0.05
0.05
0.05
0.05
0.05
0.05
0.05
0.05
2.68284e-14
2.77454e-14
2.99323e-14
3.40079e-14
4.11602e-14
5.36462e-14
7.58875e-14
1.17018e-13
1.9672e-13
3.58992e-13
7.05343e-13
1.47605e-12
3.25082e-12
7.4471e-12
1.75657e-11
4.23209e-11
1.03496e-10
2.55555e-10
6.34861e-10
1.58559e-09
3.98947e-09
1.0139e-08
2.61045e-08
6.8427e-08
1.83762e-07
5.07281e-07
1.44566e-06
4.33567e-06
1.43855e-05
5.75255e-05
0.000299775
0.00252259
0.0193581
0.0381863
0.0417743
0.0424899
0.0430445
0.0435281
0.0439402
0.0442957
0.0446078
0.0448853
0.0451343
0.0453598
0.0455653
0.0457537
0.0459273
0.0460881
0.0462375
0.0463768
0.0465072
0.0466296
0.0467448
0.0468536
0.0469565
0.0470541
0.0471468
0.0472352
0.0473194
0.0474
0.0474771
0.047551
0.047622
0.0476903
0.047756
0.0478193
0.0478804
0.0479394
0.0479965
0.0480517
0.0481051
0.048157
0.0482072
0.048256
0.0483034
0.0483495
0.0483944
0.048438
0.0484805
0.0485219
0.0485622
0.0486016
0.04864
0.0486775
0.0487142
0.04875
0.048785
0.0488193
0.0488528
0.0488856
0.0489177
0.0489491
0.04898
0.0490102
0.0490398
0.0490688
0.0490973
0.0491253
0.0491527
0.0491797
0.0492061
0.0492321
0.0492576
0.0492827
0.0493073
0.0493316
0.0493554
0.0493788
0.0494019
0.0494246
0.049447
0.0494691
0.0494909
0.0495123
0.0495332
0.0495534
0.0495727
0.0495915
0.0496106
0.0496316
0.0496567
0.0496891
0.0497314
0.0497839
0.0498427
0.0498994
0.0499454
0.0499759
0.0499919
0.0499981
0.0499997
0.05
0.05
0.05
0.05
0.05
0.05
0.05
0.05
0.05
0.05
0.05
0.05
0.05
0.05
0.05
0.05
0.05
0.05
0.05
0.05
0.05
0.05
0.05
0.05
0.05
0.05
0.05
0.05
0.05
0.05
0.05
0.05
0.05
0.05
0.05
5.2275e-14
5.39897e-14
5.80717e-14
6.56625e-14
7.89294e-14
1.01942e-13
1.42573e-13
2.16882e-13
3.58992e-13
6.44046e-13
1.24268e-12
2.55221e-12
5.51532e-12
1.23996e-11
2.87188e-11
6.79989e-11
1.63578e-10
3.97677e-10
9.73557e-10
2.39839e-09
5.95938e-09
1.49762e-08
3.81737e-08
9.91106e-08
2.63473e-07
7.19628e-07
2.02915e-06
6.01927e-06
1.9743e-05
7.8036e-05
0.00040577
0.00336082
0.0223563
0.039018
0.041829
0.0425133
0.0430649
0.0435441
0.0439524
0.0443052
0.0446154
0.0448913
0.0451393
0.0453638
0.0455686
0.0457565
0.0459297
0.04609
0.0462391
0.0463782
0.0465085
0.0466307
0.0467458
0.0468544
0.0469572
0.0470548
0.0471474
0.0472357
0.0473199
0.0474004
0.0474775
0.0475514
0.0476224
0.0476906
0.0477563
0.0478196
0.0478807
0.0479396
0.0479967
0.0480519
0.0481053
0.0481571
0.0482074
0.0482562
0.0483036
0.0483496
0.0483944
0.0484381
0.0484805
0.0485219
0.0485623
0.0486017
0.0486401
0.0486776
0.0487142
0.04875
0.0487851
0.0488193
0.0488528
0.0488856
0.0489177
0.0489492
0.04898
0.0490102
0.0490398
0.0490689
0.0490973
0.0491253
0.0491527
0.0491797
0.0492061
0.0492321
0.0492576
0.0492827
0.0493073
0.0493316
0.0493554
0.0493788
0.0494019
0.0494246
0.049447
0.0494691
0.0494909
0.0495123
0.0495332
0.0495534
0.0495727
0.0495916
0.0496106
0.0496316
0.0496567
0.0496891
0.0497314
0.0497839
0.0498427
0.0498994
0.0499454
0.0499759
0.0499919
0.0499981
0.0499997
0.05
0.05
0.05
0.05
0.05
0.05
0.05
0.05
0.05
0.05
0.05
0.05
0.05
0.05
0.05
0.05
0.05
0.05
0.05
0.05
0.05
0.05
0.05
0.05
0.05
0.05
0.05
0.05
0.05
0.05
0.05
0.05
0.05
0.05
0.05
1.09934e-13
1.13383e-13
1.21586e-13
1.36808e-13
1.63301e-13
2.0895e-13
2.88807e-13
4.33147e-13
7.05343e-13
1.24268e-12
2.35154e-12
4.73255e-12
1.00177e-11
2.20625e-11
5.00827e-11
1.16323e-10
2.74754e-10
6.56456e-10
1.5809e-09
3.83495e-09
9.39329e-09
2.32994e-08
5.8687e-08
1.50662e-07
3.95971e-07
1.06841e-06
2.97518e-06
8.71981e-06
2.82966e-05
0.000110653
0.00057665
0.00474101
0.0258188
0.0398044
0.0418907
0.042546
0.0430932
0.0435662
0.0439693
0.0443186
0.0446261
0.0449
0.0451464
0.0453697
0.0455735
0.0457606
0.0459331
0.046093
0.0462417
0.0463804
0.0465104
0.0466324
0.0467473
0.0468558
0.0469584
0.0470558
0.0471484
0.0472366
0.0473208
0.0474012
0.0474782
0.047552
0.047623
0.0476911
0.0477568
0.04782
0.0478811
0.04794
0.047997
0.0480522
0.0481056
0.0481574
0.0482076
0.0482564
0.0483038
0.0483498
0.0483946
0.0484382
0.0484807
0.0485221
0.0485624
0.0486018
0.0486402
0.0486777
0.0487143
0.0487501
0.0487851
0.0488194
0.0488529
0.0488857
0.0489178
0.0489492
0.04898
0.0490102
0.0490399
0.0490689
0.0490974
0.0491253
0.0491528
0.0491797
0.0492061
0.0492321
0.0492576
0.0492827
0.0493074
0.0493316
0.0493554
0.0493788
0.0494019
0.0494246
0.049447
0.0494691
0.0494909
0.0495123
0.0495332
0.0495534
0.0495727
0.0495916
0.0496106
0.0496316
0.0496567
0.0496891
0.0497314
0.0497839
0.0498427
0.0498994
0.0499454
0.0499759
0.0499919
0.0499981
0.0499997
0.05
0.05
0.05
0.05
0.05
0.05
0.05
0.05
0.05
0.05
0.05
0.05
0.05
0.05
0.05
0.05
0.05
0.05
0.05
0.05
0.05
0.05
0.05
0.05
0.05
0.05
0.05
0.05
0.05
0.05
0.05
0.05
0.05
0.05
0.05
2.46489e-13
2.53868e-13
2.71406e-13
3.03888e-13
3.60189e-13
4.56546e-13
6.23536e-13
9.2176e-13
1.47605e-12
2.55221e-12
4.73255e-12
9.32323e-12
1.93074e-11
4.15969e-11
9.24121e-11
2.10222e-10
4.86762e-10
1.14111e-09
2.69904e-09
6.43783e-09
1.55223e-08
3.7944e-08
9.42833e-08
2.3894e-07
6.19879e-07
1.64944e-06
4.52841e-06
1.31021e-05
4.21087e-05
0.000163509
0.000872337
0.00699746
0.0295428
0.0404657
0.0419583
0.0425893
0.0431302
0.0435949
0.0439916
0.0443363
0.0446404
0.0449117
0.045156
0.0453777
0.0455803
0.0457663
0.045938
0.0460971
0.0462452
0.0463835
0.0465131
0.0466348
0.0467494
0.0468577
0.0469602
0.0470574
0.0471499
0.0472379
0.047322
0.0474023
0.0474792
0.047553
0.0476238
0.047692
0.0477575
0.0478207
0.0478817
0.0479407
0.0479976
0.0480527
0.0481061
0.0481579
0.0482081
0.0482568
0.0483042
0.0483502
0.048395
0.0484386
0.048481
0.0485224
0.0485627
0.048602
0.0486404
0.0486779
0.0487145
0.0487503
0.0487853
0.0488195
0.048853
0.0488858
0.0489179
0.0489493
0.0489801
0.0490103
0.0490399
0.049069
0.0490975
0.0491254
0.0491528
0.0491798
0.0492062
0.0492322
0.0492577
0.0492828
0.0493074
0.0493316
0.0493555
0.0493789
0.0494019
0.0494246
0.049447
0.0494691
0.0494909
0.0495123
0.0495332
0.0495534
0.0495728
0.0495916
0.0496107
0.0496316
0.0496567
0.0496891
0.0497314
0.0497839
0.0498427
0.0498994
0.0499454
0.0499759
0.0499919
0.0499981
0.0499997
0.05
0.05
0.05
0.05
0.05
0.05
0.05
0.05
0.05
0.05
0.05
0.05
0.05
0.05
0.05
0.05
0.05
0.05
0.05
0.05
0.05
0.05
0.05
0.05
0.05
0.05
0.05
0.05
0.05
0.05
0.05
0.05
0.05
0.05
0.05
5.81591e-13
5.98159e-13
6.37536e-13
7.10348e-13
8.36069e-13
1.04984e-12
1.41688e-12
2.06454e-12
3.25082e-12
5.51532e-12
1.00177e-11
1.93074e-11
3.90882e-11
8.2311e-11
1.78786e-10
3.97902e-10
9.02111e-10
2.07248e-09
4.80885e-09
1.12669e-08
2.67147e-08
6.42798e-08
1.57338e-07
3.93003e-07
1.00474e-06
2.63144e-06
7.11011e-06
2.031e-05
6.48814e-05
0.000251942
0.00139673
0.0106282
0.0331773
0.0409506
0.0420331
0.0426445
0.0431761
0.0436306
0.0440196
0.0443587
0.0446586
0.0449267
0.0451684
0.0453881
0.045589
0.0457737
0.0459443
0.0461026
0.04625
0.0463877
0.0465167
0.046638
0.0467523
0.0468602
0.0469625
0.0470595
0.0471518
0.0472397
0.0473236
0.0474039
0.0474807
0.0475543
0.0476251
0.0476931
0.0477586
0.0478218
0.0478827
0.0479416
0.0479985
0.0480535
0.0481069
0.0481586
0.0482087
0.0482574
0.0483048
0.0483508
0.0483955
0.0484391
0.0484815
0.0485228
0.0485631
0.0486024
0.0486408
0.0486783
0.0487149
0.0487506
0.0487856
0.0488198
0.0488533
0.048886
0.0489181
0.0489496
0.0489804
0.0490105
0.0490401
0.0490692
0.0490976
0.0491256
0.049153
0.0491799
0.0492063
0.0492323
0.0492578
0.0492829
0.0493075
0.0493317
0.0493555
0.049379
0.049402
0.0494247
0.0494471
0.0494692
0.049491
0.0495124
0.0495333
0.0495534
0.0495728
0.0495916
0.0496107
0.0496316
0.0496568
0.0496891
0.0497314
0.0497839
0.0498427
0.0498994
0.0499454
0.0499759
0.0499919
0.0499981
0.0499997
0.05
0.05
0.05
0.05
0.05
0.05
0.05
0.05
0.05
0.05
0.05
0.05
0.05
0.05
0.05
0.05
0.05
0.05
0.05
0.05
0.05
0.05
0.05
0.05
0.05
0.05
0.05
0.05
0.05
0.05
0.05
0.05
0.05
0.05
0.05
1.42598e-12
1.46453e-12
1.55619e-12
1.72552e-12
2.01691e-12
2.50934e-12
3.34732e-12
4.80869e-12
7.4471e-12
1.23996e-11
2.20625e-11
4.15969e-11
8.2311e-11
1.6936e-10
3.59517e-10
7.82406e-10
1.73574e-09
3.90515e-09
8.88259e-09
2.04277e-08
4.75919e-08
1.1259e-07
2.71068e-07
6.66253e-07
1.67544e-06
4.31325e-06
1.1463e-05
3.24006e-05
0.000103617
0.000406644
0.00238971
0.0161672
0.036388
0.041269
0.0421168
0.0427121
0.0432311
0.0436733
0.0440534
0.044386
0.0446809
0.0449451
0.0451838
0.0454011
0.0456
0.0457831
0.0459523
0.0461095
0.046256
0.0463929
0.0465213
0.0466421
0.0467559
0.0468636
0.0469655
0.0470623
0.0471544
0.0472421
0.0473258
0.0474059
0.0474826
0.0475561
0.0476268
0.0476947
0.0477601
0.0478232
0.047884
0.0479428
0.0479996
0.0480546
0.0481079
0.0481596
0.0482097
0.0482583
0.0483056
0.0483515
0.0483962
0.0484398
0.0484821
0.0485234
0.0485637
0.048603
0.0486413
0.0486788
0.0487154
0.0487511
0.048786
0.0488202
0.0488537
0.0488864
0.0489185
0.0489499
0.0489807
0.0490108
0.0490404
0.0490694
0.0490979
0.0491258
0.0491532
0.0491801
0.0492065
0.0492325
0.049258
0.049283
0.0493077
0.0493319
0.0493557
0.0493791
0.0494021
0.0494248
0.0494472
0.0494693
0.0494911
0.0495125
0.0495334
0.0495535
0.0495729
0.0495917
0.0496108
0.0496317
0.0496568
0.0496892
0.0497314
0.049784
0.0498427
0.0498995
0.0499454
0.0499759
0.0499919
0.0499981
0.0499997
0.05
0.05
0.05
0.05
0.05
0.05
0.05
0.05
0.05
0.05
0.05
0.05
0.05
0.05
0.05
0.05
0.05
0.05
0.05
0.05
0.05
0.05
0.05
0.05
0.05
0.05
0.05
0.05
0.05
0.05
0.05
0.05
0.05
0.05
0.05
3.59374e-12
3.68561e-12
3.90442e-12
4.30853e-12
5.00205e-12
6.16753e-12
8.13433e-12
1.15262e-11
1.75657e-11
2.87188e-11
5.00827e-11
9.24121e-11
1.78786e-10
3.59517e-10
7.45982e-10
1.58756e-09
3.44577e-09
7.58931e-09
1.69122e-08
3.8147e-08
8.72439e-08
2.02679e-07
4.79249e-07
1.15714e-06
2.85803e-06
7.22727e-06
1.89125e-05
5.30939e-05
0.00017129
0.000696707
0.00433251
0.0231827
0.0387616
0.0414866
0.0422113
0.0427919
0.0432948
0.0437231
0.0440931
0.0444183
0.0447074
0.0449672
0.0452023
0.0454167
0.0456133
0.0457944
0.0459621
0.046118
0.0462634
0.0463994
0.046527
0.0466472
0.0467605
0.0468677
0.0469693
0.0470657
0.0471575
0.047245
0.0473286
0.0474085
0.047485
0.0475584
0.0476289
0.0476967
0.047762
0.047825
0.0478857
0.0479444
0.0480011
0.0480561
0.0481093
0.0481609
0.0482109
0.0482595
0.0483067
0.0483526
0.0483972
0.0484407
0.048483
0.0485243
0.0485645
0.0486038
0.0486421
0.0486795
0.048716
0.0487517
0.0487867
0.0488208
0.0488542
0.048887
0.048919
0.0489504
0.0489811
0.0490113
0.0490409
0.0490698
0.0490983
0.0491262
0.0491536
0.0491805
0.0492069
0.0492328
0.0492583
0.0492833
0.049308
0.0493322
0.0493559
0.0493793
0.0494024
0.049425
0.0494474
0.0494695
0.0494913
0.0495127
0.0495335
0.0495537
0.049573
0.0495918
0.0496109
0.0496318
0.0496569
0.0496893
0.0497315
0.049784
0.0498428
0.0498995
0.0499454
0.0499759
0.0499919
0.0499981
0.0499997
0.05
0.05
0.05
0.05
0.05
0.05
0.05
0.05
0.05
0.05
0.05
0.05
0.05
0.05
0.05
0.05
0.05
0.05
0.05
0.05
0.05
0.05
0.05
0.05
0.05
0.05
0.05
0.05
0.05
0.05
0.05
0.05
0.05
0.05
0.05
9.22995e-12
9.45229e-12
9.98318e-12
1.09644e-11
1.26451e-11
1.5456e-11
2.01637e-11
2.81987e-11
4.23209e-11
6.79989e-11
1.16323e-10
2.10222e-10
3.97902e-10
7.82406e-10
1.58756e-09
3.3048e-09
7.01816e-09
1.51274e-08
3.3004e-08
7.29445e-08
1.63585e-07
3.72774e-07
8.64927e-07
2.04966e-06
4.96643e-06
1.23331e-05
3.18768e-05
8.9598e-05
0.000294827
0.00128984
0.00826269
0.030072
0.0401865
0.0416588
0.0423189
0.0428827
0.0433664
0.0437795
0.0441386
0.0444554
0.0447382
0.0449928
0.0452239
0.045435
0.0456289
0.0458079
0.0459737
0.0461281
0.0462722
0.0464071
0.0465339
0.0466533
0.046766
0.0468726
0.0469738
0.0470699
0.0471613
0.0472486
0.0473319
0.0474116
0.0474879
0.0475611
0.0476315
0.0476992
0.0477643
0.0478272
0.0478878
0.0479464
0.048003
0.0480579
0.048111
0.0481625
0.0482124
0.048261
0.0483081
0.0483539
0.0483985
0.0484419
0.0484842
0.0485254
0.0485656
0.0486048
0.0486431
0.0486804
0.0487169
0.0487526
0.0487875
0.0488216
0.048855
0.0488877
0.0489197
0.0489511
0.0489818
0.0490119
0.0490414
0.0490704
0.0490988
0.0491267
0.0491541
0.049181
0.0492073
0.0492333
0.0492587
0.0492837
0.0493083
0.0493325
0.0493563
0.0493797
0.0494027
0.0494253
0.0494477
0.0494698
0.0494915
0.0495129
0.0495338
0.0495539
0.0495732
0.049592
0.0496111
0.049632
0.0496571
0.0496894
0.0497317
0.0497842
0.0498429
0.0498996
0.0499455
0.0499759
0.0499919
0.0499981
0.0499997
0.05
0.05
0.05
0.05
0.05
0.05
0.05
0.05
0.05
0.05
0.05
0.05
0.05
0.05
0.05
0.05
0.05
0.05
0.05
0.05
0.05
0.05
0.05
0.05
0.05
0.05
0.05
0.05
0.05
0.05
0.05
0.05
0.05
0.05
0.05
2.4001e-11
2.45439e-11
2.58441e-11
2.82518e-11
3.23723e-11
3.9237e-11
5.06572e-11
6.99662e-11
1.03496e-10
1.63578e-10
2.74754e-10
4.86762e-10
9.02111e-10
1.73574e-09
3.44577e-09
7.01816e-09
1.45811e-08
3.0746e-08
6.56367e-08
1.42036e-07
3.12076e-07
6.9722e-07
1.58755e-06
3.69286e-06
8.77825e-06
2.14366e-05
5.50978e-05
0.000157131
0.000537057
0.00260344
0.0154466
0.0355521
0.0408934
0.0418177
0.0424412
0.0429832
0.0434453
0.0438424
0.0441896
0.0444974
0.0447731
0.0450221
0.0452487
0.0454561
0.045647
0.0458234
0.0459872
0.0461398
0.0462825
0.0464162
0.0465419
0.0466604
0.0467724
0.0468785
0.0469791
0.0470747
0.0471658
0.0472528
0.0473358
0.0474152
0.0474914
0.0475644
0.0476346
0.0477021
0.0477671
0.0478298
0.0478903
0.0479488
0.0480053
0.04806
0.048113
0.0481644
0.0482143
0.0482628
0.0483098
0.0483556
0.0484001
0.0484434
0.0484857
0.0485268
0.0485669
0.0486061
0.0486443
0.0486816
0.0487181
0.0487537
0.0487885
0.0488226
0.048856
0.0488886
0.0489206
0.0489519
0.0489826
0.0490127
0.0490422
0.0490712
0.0490995
0.0491274
0.0491547
0.0491816
0.049208
0.0492339
0.0492593
0.0492843
0.0493089
0.049333
0.0493568
0.0493802
0.0494032
0.0494258
0.0494481
0.0494702
0.0494919
0.0495133
0.0495341
0.0495543
0.0495736
0.0495923
0.0496114
0.0496322
0.0496573
0.0496897
0.0497319
0.0497843
0.049843
0.0498997
0.0499456
0.049976
0.0499919
0.0499981
0.0499997
0.05
0.05
0.05
0.05
0.05
0.05
0.05
0.05
0.05
0.05
0.05
0.05
0.05
0.05
0.05
0.05
0.05
0.05
0.05
0.05
0.05
0.05
0.05
0.05
0.05
0.05
0.05
0.05
0.05
0.05
0.05
0.05
0.05
0.05
0.05
6.28557e-11
6.41842e-11
6.7381e-11
7.33195e-11
8.34859e-11
1.00375e-10
1.28311e-10
1.75142e-10
2.55555e-10
3.97677e-10
6.56456e-10
1.14111e-09
2.07248e-09
3.90515e-09
7.58931e-09
1.51274e-08
3.0746e-08
6.34116e-08
1.32457e-07
2.8065e-07
6.04148e-07
1.32391e-06
2.96112e-06
6.76728e-06
1.5807e-05
3.81637e-05
9.84529e-05
0.000288998
0.00106126
0.00571471
0.0251433
0.038919
0.0412492
0.04198
0.0425765
0.0430915
0.0435307
0.0439111
0.0442458
0.0445439
0.0448119
0.0450549
0.0452765
0.0454799
0.0456674
0.0458411
0.0460026
0.0461532
0.0462942
0.0464266
0.0465512
0.0466687
0.0467798
0.0468852
0.0469852
0.0470804
0.047171
0.0472576
0.0473403
0.0474195
0.0474954
0.0475682
0.0476382
0.0477055
0.0477703
0.0478329
0.0478932
0.0479515
0.048008
0.0480626
0.0481155
0.0481668
0.0482165
0.0482649
0.0483119
0.0483575
0.048402
0.0484452
0.0484874
0.0485285
0.0485685
0.0486076
0.0486458
0.048683
0.0487194
0.048755
0.0487898
0.0488239
0.0488572
0.0488898
0.0489217
0.048953
0.0489837
0.0490137
0.0490432
0.0490721
0.0491004
0.0491283
0.0491556
0.0491824
0.0492087
0.0492346
0.04926
0.049285
0.0493096
0.0493337
0.0493574
0.0493808
0.0494038
0.0494264
0.0494487
0.0494707
0.0494924
0.0495138
0.0495346
0.0495547
0.049574
0.0495927
0.0496117
0.0496326
0.0496577
0.04969
0.0497322
0.0497846
0.0498433
0.0498998
0.0499456
0.049976
0.0499919
0.0499981
0.0499997
0.05
0.05
0.05
0.05
0.05
0.05
0.05
0.05
0.05
0.05
0.05
0.05
0.05
0.05
0.05
0.05
0.05
0.05
0.05
0.05
0.05
0.05
0.05
0.05
0.05
0.05
0.05
0.05
0.05
0.05
0.05
0.05
0.05
0.05
0.05
1.6516e-10
1.68403e-10
1.7626e-10
1.90928e-10
2.1608e-10
2.57795e-10
3.26469e-10
4.40719e-10
6.34861e-10
9.73557e-10
1.5809e-09
2.69904e-09
4.80885e-09
8.88259e-09
1.69122e-08
3.3004e-08
6.56367e-08
1.32457e-07
2.70928e-07
5.62562e-07
1.18777e-06
2.55645e-06
5.62118e-06
1.2628e-05
2.90774e-05
7.00663e-05
0.000184076
0.000565673
0.00234835
0.0128288
0.0335109
0.040399
0.0414992
0.0421543
0.0427214
0.0432061
0.0436219
0.0439851
0.0443068
0.0445947
0.0448546
0.045091
0.0453073
0.0455063
0.0456902
0.0458609
0.0460198
0.0461683
0.0463075
0.0464383
0.0465616
0.046678
0.0467882
0.0468927
0.0469921
0.0470867
0.0471769
0.047263
0.0473454
0.0474243
0.0474999
0.0475725
0.0476422
0.0477093
0.047774
0.0478364
0.0478966
0.0479547
0.048011
0.0480655
0.0481183
0.0481694
0.0482191
0.0482674
0.0483142
0.0483598
0.0484042
0.0484474
0.0484894
0.0485304
0.0485704
0.0486094
0.0486475
0.0486847
0.0487211
0.0487566
0.0487913
0.0488253
0.0488586
0.0488912
0.048923
0.0489543
0.0489849
0.0490149
0.0490443
0.0490732
0.0491015
0.0491293
0.0491566
0.0491834
0.0492097
0.0492355
0.0492609
0.0492859
0.0493104
0.0493345
0.0493582
0.0493816
0.0494045
0.0494271
0.0494494
0.0494714
0.0494931
0.0495144
0.0495352
0.0495553
0.0495745
0.0495932
0.0496122
0.0496331
0.0496582
0.0496904
0.0497326
0.049785
0.0498436
0.0499001
0.0499458
0.0499761
0.049992
0.0499981
0.0499997
0.05
0.05
0.05
0.05
0.05
0.05
0.05
0.05
0.05
0.05
0.05
0.05
0.05
0.05
0.05
0.05
0.05
0.05
0.05
0.05
0.05
0.05
0.05
0.05
0.05
0.05
0.05
0.05
0.05
0.05
0.05
0.05
0.05
0.05
0.05
4.34899e-10
4.42786e-10
4.6206e-10
4.98303e-10
5.60662e-10
6.64044e-10
8.33634e-10
1.1139e-09
1.58559e-09
2.39839e-09
3.83495e-09
6.43783e-09
1.12669e-08
2.04277e-08
3.8147e-08
7.29445e-08
1.42036e-07
2.8065e-07
5.62562e-07
1.14597e-06
2.37622e-06
5.02891e-06
1.08751e-05