/*--------------------------------*- C++ -*----------------------------------*\
  =========                 |
  \\      /  F ield         | OpenFOAM: The Open Source CFD Toolbox
   \\    /   O peration     | Website:  https://openfoam.org
    \\  /    A nd           | Version:  13
     \\/     M anipulation  |
\*---------------------------------------------------------------------------*/
FoamFile
{
    format      ascii;
    class       volScalarField;
    location    "0.0014";
    object      CO2;
}
// * * * * * * * * * * * * * * * * * * * * * * * * * * * * * * * * * * * * * //

dimensions      [];

internalField   nonuniform List<scalar> 
33334
(
0.137164
0.137164
0.137164
0.137164
0.137164
0.137164
0.137164
0.137164
0.137164
0.137164
0.137164
0.137164
0.137164
0.137164
0.137164
0.137164
0.137164
0.137164
0.137164
0.137164
0.137164
0.137164
0.137164
0.137164
0.137164
0.137164
0.137163
0.13716
0.137149
0.137098
0.136795
0.133821
0.101937
0.0392645
0.0229476
0.0206915
0.0191609
0.0178175
0.0166705
0.0156838
0.0148196
0.0140526
0.0133648
0.012743
0.0121766
0.0116577
0.0111798
0.0107375
0.0103267
0.00994361
0.00958522
0.0092489
0.00893237
0.00863368
0.00835111
0.00808312
0.00782843
0.00758593
0.00735459
0.00713349
0.00692184
0.00671891
0.00652406
0.00633673
0.0061564
0.00598261
0.00581493
0.00565298
0.00549643
0.00534494
0.00519823
0.00505603
0.0049181
0.0047842
0.00465413
0.00452769
0.0044047
0.004285
0.00416842
0.00405483
0.00394409
0.00383606
0.00373064
0.00362772
0.00352717
0.00342892
0.00333286
0.00323891
0.00314699
0.00305701
0.00296891
0.00288261
0.00279805
0.00271517
0.00263392
0.00255423
0.00247606
0.00239936
0.00232409
0.0022502
0.00217764
0.00210637
0.00203636
0.00196756
0.00189992
0.00183344
0.00176808
0.00170381
0.00164059
0.00157833
0.00151693
0.00145629
0.00139645
0.00133763
0.0012803
0.00122499
0.00117189
0.00112027
0.00106787
0.00101042
0.000941351
0.000852447
0.000736371
0.000592141
0.000430886
0.000275288
0.00014934
6.58401e-05
2.21053e-05
5.12643e-06
7.14006e-07
4.94525e-08
1.35309e-09
1.16366e-11
2.71367e-13
2.48194e-13
2.48023e-13
2.476e-13
2.45843e-13
2.41273e-13
2.33093e-13
2.2183e-13
2.09034e-13
1.96357e-13
1.84777e-13
1.74461e-13
1.65084e-13
1.56199e-13
1.47454e-13
1.38656e-13
1.29762e-13
1.20817e-13
1.11899e-13
1.03078e-13
9.43927e-14
8.58543e-14
7.74495e-14
6.91525e-14
6.0935e-14
5.27734e-14
4.46543e-14
3.6585e-14
2.86099e-14
2.08254e-14
1.34233e-14
6.88262e-15
0.137164
0.137164
0.137164
0.137164
0.137164
0.137164
0.137164
0.137164
0.137164
0.137164
0.137164
0.137164
0.137164
0.137164
0.137164
0.137164
0.137164
0.137164
0.137164
0.137164
0.137164
0.137164
0.137164
0.137164
0.137164
0.137164
0.137163
0.13716
0.137149
0.137098
0.136793
0.133814
0.101908
0.0392536
0.0229474
0.0206916
0.019161
0.0178176
0.0166706
0.0156839
0.0148197
0.0140527
0.0133649
0.012743
0.0121767
0.0116578
0.0111798
0.0107376
0.0103268
0.00994367
0.00958528
0.00924896
0.00893243
0.00863374
0.00835117
0.00808319
0.0078285
0.00758599
0.00735465
0.00713355
0.0069219
0.00671897
0.00652413
0.0063368
0.00615647
0.00598267
0.00581499
0.00565305
0.00549649
0.005345
0.0051983
0.0050561
0.00491816
0.00478427
0.00465419
0.00452775
0.00440477
0.00428506
0.00416849
0.0040549
0.00394415
0.00383613
0.00373071
0.00362778
0.00352724
0.00342899
0.00333293
0.00323898
0.00314706
0.00305708
0.00296898
0.00288268
0.00279812
0.00271524
0.00263399
0.0025543
0.00247613
0.00239943
0.00232416
0.00225027
0.00217771
0.00210644
0.00203643
0.00196762
0.00189999
0.00183351
0.00176815
0.00170388
0.00164066
0.0015784
0.00151699
0.00145636
0.00139652
0.0013377
0.00128037
0.00122506
0.00117195
0.00112034
0.00106794
0.00101049
0.000941447
0.000852569
0.000736521
0.000592306
0.000431041
0.000275409
0.000149416
6.58779e-05
2.21193e-05
5.1301e-06
7.14607e-07
4.95038e-08
1.35485e-09
1.16551e-11
2.71408e-13
2.48189e-13
2.48018e-13
2.47595e-13
2.45839e-13
2.41271e-13
2.33093e-13
2.2183e-13
2.09035e-13
1.96358e-13
1.84777e-13
1.74461e-13
1.65083e-13
1.56199e-13
1.47453e-13
1.38656e-13
1.29762e-13
1.20817e-13
1.11899e-13
1.03077e-13
9.43922e-14
8.58539e-14
7.74491e-14
6.91521e-14
6.09346e-14
5.27731e-14
4.4654e-14
3.65848e-14
2.86097e-14
2.08253e-14
1.34233e-14
6.88262e-15
0.137164
0.137164
0.137164
0.137164
0.137164
0.137164
0.137164
0.137164
0.137164
0.137164
0.137164
0.137164
0.137164
0.137164
0.137164
0.137164
0.137164
0.137164
0.137164
0.137164
0.137164
0.137164
0.137164
0.137164
0.137164
0.137164
0.137163
0.13716
0.137148
0.137097
0.136788
0.133781
0.101748
0.0391855
0.0229451
0.0206917
0.019161
0.0178176
0.0166706
0.0156839
0.0148197
0.0140527
0.013365
0.0127431
0.0121767
0.0116578
0.0111799
0.0107377
0.0103268
0.00994372
0.00958533
0.00924901
0.00893249
0.0086338
0.00835123
0.00808324
0.00782855
0.00758605
0.00735471
0.00713361
0.00692196
0.00671903
0.00652419
0.00633686
0.00615653
0.00598274
0.00581506
0.00565312
0.00549656
0.00534507
0.00519836
0.00505617
0.00491823
0.00478434
0.00465427
0.00452783
0.00440484
0.00428514
0.00416856
0.00405497
0.00394423
0.00383621
0.00373079
0.00362786
0.00352732
0.00342907
0.00333301
0.00323906
0.00314714
0.00305716
0.00296906
0.00288276
0.0027982
0.00271532
0.00263407
0.00255438
0.00247621
0.00239952
0.00232424
0.00225035
0.00217779
0.00210653
0.00203652
0.00196771
0.00190008
0.0018336
0.00176824
0.00170397
0.00164075
0.00157849
0.00151708
0.00145645
0.00139661
0.00133779
0.00128046
0.00122514
0.00117204
0.00112042
0.00106803
0.0010106
0.000941577
0.000852738
0.000736733
0.000592549
0.000431281
0.000275608
0.000149549
6.59481e-05
2.2147e-05
5.13756e-06
7.15815e-07
4.96018e-08
1.35802e-09
1.16867e-11
2.71472e-13
2.48178e-13
2.48006e-13
2.47584e-13
2.4583e-13
2.41263e-13
2.33087e-13
2.21826e-13
2.09032e-13
1.96355e-13
1.84774e-13
1.74457e-13
1.6508e-13
1.56195e-13
1.4745e-13
1.38653e-13
1.29759e-13
1.20814e-13
1.11897e-13
1.03075e-13
9.43903e-14
8.58521e-14
7.74475e-14
6.91507e-14
6.09335e-14
5.27721e-14
4.46533e-14
3.65842e-14
2.86093e-14
2.0825e-14
1.34232e-14
6.88259e-15
0.137164
0.137164
0.137164
0.137164
0.137164
0.137164
0.137164
0.137164
0.137164
0.137164
0.137164
0.137164
0.137164
0.137164
0.137164
0.137164
0.137164
0.137164
0.137164
0.137164
0.137164
0.137164
0.137164
0.137164
0.137164
0.137164
0.137163
0.137159
0.137148
0.137094
0.136776
0.133693
0.101269
0.038971
0.0229363
0.0206917
0.0191607
0.0178174
0.0166705
0.0156838
0.0148197
0.0140527
0.0133649
0.0127431
0.0121767
0.0116578
0.0111799
0.0107377
0.0103268
0.00994374
0.00958535
0.00924902
0.0089325
0.00863381
0.00835124
0.00808326
0.00782857
0.00758607
0.00735473
0.00713364
0.00692198
0.00671906
0.00652421
0.00633689
0.00615656
0.00598276
0.00581509
0.00565314
0.00549659
0.0053451
0.0051984
0.0050562
0.00491827
0.00478437
0.0046543
0.00452786
0.00440488
0.00428517
0.0041686
0.00405501
0.00394427
0.00383625
0.00373083
0.0036279
0.00352736
0.00342911
0.00333305
0.0032391
0.00314718
0.00305721
0.0029691
0.00288281
0.00279825
0.00271537
0.00263412
0.00255443
0.00247626
0.00239957
0.00232429
0.0022504
0.00217785
0.00210658
0.00203657
0.00196776
0.00190013
0.00183365
0.00176829
0.00170402
0.0016408
0.00157854
0.00151714
0.00145651
0.00139667
0.00133785
0.00128052
0.0012252
0.00117209
0.00112047
0.00106809
0.00101066
0.000941666
0.000852858
0.00073689
0.000592735
0.000431473
0.000275774
0.000149666
6.60132e-05
2.21739e-05
5.14507e-06
7.17054e-07
4.97026e-08
1.36124e-09
1.17183e-11
2.71534e-13
2.48165e-13
2.47994e-13
2.47571e-13
2.45818e-13
2.41253e-13
2.33079e-13
2.2182e-13
2.09026e-13
1.96349e-13
1.84769e-13
1.74452e-13
1.65075e-13
1.5619e-13
1.47445e-13
1.38649e-13
1.29756e-13
1.20811e-13
1.11894e-13
1.03073e-13
9.43883e-14
8.58504e-14
7.74461e-14
6.91495e-14
6.09325e-14
5.27714e-14
4.46528e-14
3.65838e-14
2.86091e-14
2.08249e-14
1.34231e-14
6.88262e-15
0.137164
0.137164
0.137164
0.137164
0.137164
0.137164
0.137164
0.137164
0.137164
0.137164
0.137164
0.137164
0.137164
0.137164
0.137164
0.137164
0.137164
0.137164
0.137164
0.137164
0.137164
0.137164
0.137164
0.137164
0.137164
0.137164
0.137163
0.137159
0.137146
0.137089
0.136751
0.133508
0.100204
0.0384893
0.0229138
0.0206902
0.0191591
0.017816
0.0166695
0.0156832
0.0148192
0.0140524
0.0133647
0.0127429
0.0121766
0.0116578
0.0111798
0.0107376
0.0103268
0.00994371
0.00958533
0.00924901
0.00893249
0.00863381
0.00835124
0.00808326
0.00782857
0.00758607
0.00735473
0.00713364
0.00692199
0.00671906
0.00652422
0.00633689
0.00615656
0.00598277
0.00581509
0.00565315
0.0054966
0.00534511
0.0051984
0.00505621
0.00491827
0.00478438
0.00465431
0.00452787
0.00440489
0.00428518
0.00416861
0.00405502
0.00394428
0.00383626
0.00373084
0.00362791
0.00352737
0.00342912
0.00333307
0.00323912
0.0031472
0.00305722
0.00296912
0.00288282
0.00279827
0.00271539
0.00263413
0.00255445
0.00247628
0.00239958
0.00232431
0.00225042
0.00217786
0.0021066
0.00203659
0.00196778
0.00190016
0.00183367
0.00176831
0.00170405
0.00164083
0.00157857
0.00151716
0.00145653
0.00139669
0.00133787
0.00128054
0.00122522
0.00117211
0.00112049
0.00106811
0.00101069
0.000941704
0.000852912
0.000736963
0.000592826
0.000431571
0.000275862
0.000149731
6.60505e-05
2.21899e-05
5.14971e-06
7.17853e-07
4.97701e-08
1.36347e-09
1.17406e-11
2.71579e-13
2.48157e-13
2.47985e-13
2.47563e-13
2.4581e-13
2.41246e-13
2.33073e-13
2.21814e-13
2.09021e-13
1.96345e-13
1.84765e-13
1.74448e-13
1.65071e-13
1.56187e-13
1.47443e-13
1.38647e-13
1.29754e-13
1.2081e-13
1.11893e-13
1.03072e-13
9.43874e-14
8.58497e-14
7.74455e-14
6.91491e-14
6.09322e-14
5.27712e-14
4.46526e-14
3.65838e-14
2.86091e-14
2.0825e-14
1.34232e-14
6.88266e-15
0.137164
0.137164
0.137164
0.137164
0.137164
0.137164
0.137164
0.137164
0.137164
0.137164
0.137164
0.137164
0.137164
0.137164
0.137164
0.137164
0.137164
0.137164
0.137164
0.137164
0.137164
0.137164
0.137164
0.137164
0.137164
0.137164
0.137162
0.137158
0.137144
0.13708
0.136706
0.133175
0.0982483
0.0376218
0.0228696
0.0206847
0.0191539
0.0178117
0.0166665
0.015681
0.0148176
0.0140511
0.0133638
0.0127422
0.0121761
0.0116573
0.0111795
0.0107374
0.0103266
0.00994355
0.0095852
0.00924891
0.00893241
0.00863374
0.00835119
0.00808322
0.00782854
0.00758604
0.00735471
0.00713362
0.00692197
0.00671905
0.00652421
0.00633688
0.00615656
0.00598276
0.00581509
0.00565315
0.00549659
0.00534511
0.0051984
0.00505621
0.00491827
0.00478438
0.00465431
0.00452787
0.00440489
0.00428519
0.00416861
0.00405502
0.00394428
0.00383626
0.00373084
0.00362792
0.00352738
0.00342912
0.00333307
0.00323912
0.0031472
0.00305722
0.00296912
0.00288283
0.00279827
0.00271539
0.00263414
0.00255445
0.00247629
0.00239959
0.00232432
0.00225043
0.00217787
0.00210661
0.00203659
0.00196779
0.00190016
0.00183368
0.00176832
0.00170405
0.00164083
0.00157857
0.00151717
0.00145654
0.0013967
0.00133788
0.00128055
0.00122523
0.00117212
0.0011205
0.00106812
0.0010107
0.000941714
0.000852927
0.000736985
0.000592855
0.000431604
0.000275893
0.000149754
6.60641e-05
2.21959e-05
5.15157e-06
7.18194e-07
4.98011e-08
1.36456e-09
1.17522e-11
2.71604e-13
2.48153e-13
2.47982e-13
2.4756e-13
2.45807e-13
2.41243e-13
2.3307e-13
2.21812e-13
2.09019e-13
1.96343e-13
1.84763e-13
1.74447e-13
1.6507e-13
1.56186e-13
1.47442e-13
1.38646e-13
1.29753e-13
1.20809e-13
1.11892e-13
1.03071e-13
9.43872e-14
8.58496e-14
7.74454e-14
6.91491e-14
6.09322e-14
5.27712e-14
4.46526e-14
3.65838e-14
2.86092e-14
2.0825e-14
1.34232e-14
6.88271e-15
0.137164
0.137164
0.137164
0.137164
0.137164
0.137164
0.137164
0.137164
0.137164
0.137164
0.137164
0.137164
0.137164
0.137164
0.137164
0.137164
0.137164
0.137164
0.137164
0.137164
0.137164
0.137164
0.137164
0.137164
0.137164
0.137164
0.137162
0.137157
0.13714
0.137066
0.136634
0.132617
0.0950901
0.0362923
0.0227974
0.0206712
0.0191417
0.017802
0.0166595
0.0156757
0.0148136
0.0140481
0.0133614
0.0127403
0.0121746
0.0116562
0.0111786
0.0107366
0.010326
0.00994304
0.00958478
0.00924856
0.00893212
0.0086335
0.00835098
0.00808304
0.00782839
0.00758591
0.0073546
0.00713353
0.00692189
0.00671898
0.00652415
0.00633683
0.00615652
0.00598273
0.00581506
0.00565312
0.00549657
0.00534509
0.00519839
0.0050562
0.00491827
0.00478437
0.0046543
0.00452787
0.00440488
0.00428518
0.00416861
0.00405502
0.00394428
0.00383626
0.00373084
0.00362792
0.00352738
0.00342912
0.00333307
0.00323912
0.0031472
0.00305722
0.00296912
0.00288283
0.00279827
0.00271539
0.00263414
0.00255445
0.00247629
0.00239959
0.00232432
0.00225043
0.00217787
0.00210661
0.00203659
0.00196779
0.00190016
0.00183368
0.00176832
0.00170405
0.00164083
0.00157857
0.00151717
0.00145654
0.0013967
0.00133788
0.00128055
0.00122523
0.00117212
0.0011205
0.00106812
0.0010107
0.000941714
0.000852929
0.000736989
0.00059286
0.00043161
0.000275899
0.000149758
6.60669e-05
2.21972e-05
5.15203e-06
7.18293e-07
4.98113e-08
1.36496e-09
1.17568e-11
2.71615e-13
2.48152e-13
2.47981e-13
2.47559e-13
2.45806e-13
2.41242e-13
2.3307e-13
2.21811e-13
2.09019e-13
1.96343e-13
1.84763e-13
1.74447e-13
1.6507e-13
1.56186e-13
1.47442e-13
1.38646e-13
1.29753e-13
1.20809e-13
1.11892e-13
1.03071e-13
9.43872e-14
8.58496e-14
7.74455e-14
6.91491e-14
6.09322e-14
5.27712e-14
4.46527e-14
3.65839e-14
2.86093e-14
2.08251e-14
1.34233e-14
6.88275e-15
0.137164
0.137164
0.137164
0.137164
0.137164
0.137164
0.137164
0.137164
0.137164
0.137164
0.137164
0.137164
0.137164
0.137164
0.137164
0.137164
0.137164
0.137164
0.137164
0.137164
0.137164
0.137164
0.137164
0.137164
0.137164
0.137163
0.137161
0.137155
0.137134
0.137043
0.136521
0.131705
0.090489
0.0345252
0.0226946
0.0206452
0.0191187
0.0177838
0.016646
0.0156656
0.0148057
0.0140419
0.0133565
0.0127364
0.0121714
0.0116536
0.0111764
0.0107348
0.0103245
0.00994182
0.00958375
0.00924768
0.00893137
0.00863285
0.00835042
0.00808255
0.00782796
0.00758554
0.00735427
0.00713324
0.00692164
0.00671876
0.00652396
0.00633666
0.00615636
0.0059826
0.00581495
0.00565302
0.00549649
0.00534502
0.00519832
0.00505614
0.00491822
0.00478433
0.00465427
0.00452783
0.00440485
0.00428516
0.00416859
0.004055
0.00394427
0.00383625
0.00373083
0.00362791
0.00352737
0.00342912
0.00333306
0.00323912
0.0031472
0.00305722
0.00296912
0.00288282
0.00279827
0.00271539
0.00263414
0.00255445
0.00247628
0.00239959
0.00232432
0.00225043
0.00217787
0.00210661
0.00203659
0.00196779
0.00190016
0.00183368
0.00176832
0.00170405
0.00164083
0.00157857
0.00151717
0.00145654
0.0013967
0.00133788
0.00128055
0.00122523
0.00117212
0.0011205
0.00106811
0.0010107
0.000941713
0.000852928
0.000736987
0.000592859
0.000431609
0.000275898
0.000149758
6.60667e-05
2.21973e-05
5.15209e-06
7.18312e-07
4.98138e-08
1.36507e-09
1.17583e-11
2.7162e-13
2.48152e-13
2.47981e-13
2.47559e-13
2.45806e-13
2.41243e-13
2.3307e-13
2.21811e-13
2.09019e-13
1.96343e-13
1.84763e-13
1.74447e-13
1.6507e-13
1.56186e-13
1.47442e-13
1.38646e-13
1.29753e-13
1.20809e-13
1.11892e-13
1.03071e-13
9.43873e-14
8.58497e-14
7.74456e-14
6.91492e-14
6.09323e-14
5.27713e-14
4.46528e-14
3.6584e-14
2.86093e-14
2.08251e-14
1.34234e-14
6.88279e-15
0.137164
0.137164
0.137164
0.137164
0.137164
0.137164
0.137164
0.137164
0.137164
0.137164
0.137164
0.137164
0.137164
0.137164
0.137164
0.137164
0.137164
0.137164
0.137164
0.137164
0.137164
0.137164
0.137164
0.137164
0.137164
0.137163
0.13716
0.137152
0.137125
0.137007
0.136342
0.130244
0.0840595
0.0324083
0.0225655
0.0206023
0.019081
0.0177542
0.0166238
0.0156484
0.0147923
0.0140312
0.0133479
0.0127294
0.0121657
0.0116488
0.0111725
0.0107315
0.0103217
0.00993946
0.00958173
0.00924594
0.00892985
0.00863152
0.00834924
0.0080815
0.00782704
0.00758471
0.00735353
0.00713257
0.00692104
0.00671822
0.00652347
0.00633623
0.00615598
0.00598225
0.00581463
0.00565274
0.00549623
0.00534479
0.00519812
0.00505596
0.00491805
0.00478418
0.00465414
0.00452772
0.00440475
0.00428507
0.00416851
0.00405493
0.0039442
0.00383619
0.00373078
0.00362786
0.00352733
0.00342908
0.00333303
0.00323909
0.00314717
0.0030572
0.0029691
0.00288281
0.00279826
0.00271538
0.00263413
0.00255444
0.00247628
0.00239958
0.00232431
0.00225042
0.00217787
0.0021066
0.00203659
0.00196779
0.00190016
0.00183368
0.00176832
0.00170405
0.00164083
0.00157857
0.00151717
0.00145654
0.0013967
0.00133788
0.00128055
0.00122522
0.00117212
0.0011205
0.00106811
0.0010107
0.000941711
0.000852924
0.000736983
0.000592854
0.000431604
0.000275894
0.000149755
6.60656e-05
2.2197e-05
5.15204e-06
7.18311e-07
4.98142e-08
1.36511e-09
1.17588e-11
2.71622e-13
2.48153e-13
2.47981e-13
2.47559e-13
2.45807e-13
2.41243e-13
2.3307e-13
2.21812e-13
2.09019e-13
1.96343e-13
1.84763e-13
1.74447e-13
1.6507e-13
1.56186e-13
1.47442e-13
1.38646e-13
1.29753e-13
1.20809e-13
1.11892e-13
1.03072e-13
9.43874e-14
8.58498e-14
7.74457e-14
6.91493e-14
6.09324e-14
5.27714e-14
4.46529e-14
3.6584e-14
2.86094e-14
2.08252e-14
1.34234e-14
6.88283e-15
0.137164
0.137164
0.137164
0.137164
0.137164
0.137164
0.137164
0.137164
0.137164
0.137164
0.137164
0.137164
0.137164
0.137164
0.137164
0.137164
0.137164
0.137164
0.137164
0.137164
0.137164
0.137164
0.137164
0.137164
0.137164
0.137162
0.137159
0.137148
0.13711
0.13695
0.136051
0.127945
0.0758345
0.0301268
0.0224154
0.0205381
0.0190249
0.0177103
0.0165904
0.0156224
0.0147716
0.0140146
0.0133344
0.0127183
0.0121565
0.0116412
0.0111661
0.0107261
0.0103171
0.0099355
0.0095783
0.00924295
0.00892723
0.0086292
0.00834717
0.00807964
0.00782536
0.0075832
0.00735216
0.00713132
0.0069199
0.00671718
0.00652253
0.00633537
0.00615519
0.00598153
0.00581398
0.00565214
0.00549569
0.00534429
0.00519766
0.00505554
0.00491767
0.00478384
0.00465382
0.00452743
0.00440449
0.00428483
0.00416829
0.00405473
0.00394402
0.00383603
0.00373063
0.00362773
0.00352721
0.00342897
0.00333293
0.003239
0.00314709
0.00305713
0.00296904
0.00288275
0.0027982
0.00271533
0.00263409
0.00255441
0.00247625
0.00239955
0.00232429
0.0022504
0.00217785
0.00210659
0.00203658
0.00196777
0.00190015
0.00183367
0.00176831
0.00170404
0.00164082
0.00157857
0.00151716
0.00145653
0.00139669
0.00133788
0.00128054
0.00122522
0.00117211
0.00112049
0.00106811
0.00101069
0.000941707
0.000852919
0.000736976
0.000592846
0.000431596
0.000275887
0.000149751
6.60634e-05
2.21962e-05
5.15188e-06
7.18295e-07
4.98137e-08
1.36511e-09
1.1759e-11
2.71624e-13
2.48154e-13
2.47982e-13
2.4756e-13
2.45807e-13
2.41244e-13
2.33071e-13
2.21813e-13
2.0902e-13
1.96344e-13
1.84764e-13
1.74447e-13
1.65071e-13
1.56187e-13
1.47442e-13
1.38646e-13
1.29754e-13
1.2081e-13
1.11893e-13
1.03072e-13
9.43876e-14
8.585e-14
7.74458e-14
6.91494e-14
6.09325e-14
5.27715e-14
4.46529e-14
3.65841e-14
2.86094e-14
2.08252e-14
1.34234e-14
6.88287e-15
0.137164
0.137164
0.137164
0.137164
0.137164
0.137164
0.137164
0.137164
0.137164
0.137164
0.137164
0.137164
0.137164
0.137164
0.137164
0.137164
0.137164
0.137164
0.137164
0.137164
0.137164
0.137164
0.137164
0.137164
0.137163
0.137161
0.137156
0.13714
0.137087
0.136861
0.135582
0.124158
0.0663361
0.0279695
0.0222462
0.0204485
0.0189472
0.0176498
0.0165439
0.0155858
0.0147423
0.0139907
0.0133148
0.0127022
0.0121431
0.0116299
0.0111565
0.010718
0.0103102
0.00992949
0.00957307
0.00923836
0.00892316
0.00862557
0.0083439
0.00807669
0.00782269
0.00758076
0.00734992
0.00712927
0.00691802
0.00671545
0.00652093
0.00633389
0.00615383
0.00598027
0.00581282
0.00565107
0.0054947
0.00534337
0.00519682
0.00505476
0.00491695
0.00478316
0.0046532
0.00452686
0.00440396
0.00428433
0.00416783
0.00405431
0.00394363
0.00383567
0.0037303
0.00362742
0.00352692
0.00342871
0.00333269
0.00323878
0.00314689
0.00305694
0.00296887
0.00288259
0.00279806
0.0027152
0.00263396
0.0025543
0.00247614
0.00239946
0.0023242
0.00225032
0.00217778
0.00210652
0.00203652
0.00196772
0.0019001
0.00183362
0.00176827
0.00170401
0.00164079
0.00157854
0.00151714
0.00145651
0.00139667
0.00133786
0.00128053
0.00122521
0.0011721
0.00112048
0.0010681
0.00101068
0.000941697
0.000852909
0.000736966
0.000592836
0.000431586
0.000275879
0.000149746
6.60608e-05
2.21952e-05
5.15164e-06
7.18264e-07
4.9812e-08
1.36508e-09
1.1759e-11
2.71625e-13
2.48154e-13
2.47983e-13
2.47561e-13
2.45808e-13
2.41245e-13
2.33072e-13
2.21813e-13
2.09021e-13
1.96344e-13
1.84764e-13
1.74448e-13
1.65071e-13
1.56187e-13
1.47443e-13
1.38647e-13
1.29754e-13
1.2081e-13
1.11893e-13
1.03072e-13
9.43877e-14
8.58501e-14
7.74459e-14
6.91495e-14
6.09326e-14
5.27716e-14
4.4653e-14
3.65842e-14
2.86095e-14
2.08253e-14
1.34235e-14
6.88291e-15
0.137164
0.137164
0.137164
0.137164
0.137164
0.137164
0.137164
0.137164
0.137164
0.137164
0.137164
0.137164
0.137164
0.137164
0.137164
0.137164
0.137164
0.137164
0.137164
0.137164
0.137164
0.137164
0.137164
0.137164
0.137163
0.13716
0.137152
0.137128
0.137049
0.136716
0.134771
0.117968
0.05612
0.0261554
0.0220607
0.0203296
0.0188459
0.0175711
0.0164827
0.0155372
0.014703
0.0139587
0.0132884
0.0126802
0.0121246
0.0116143
0.0111433
0.0107067
0.0103004
0.00992101
0.00956565
0.00923181
0.00891734
0.00862035
0.00833918
0.0080724
0.00781876
0.00757717
0.00734661
0.00712621
0.00691518
0.00671281
0.00651848
0.00633162
0.00615171
0.00597831
0.00581098
0.00564937
0.00549311
0.00534189
0.00519543
0.00505346
0.00491574
0.00478204
0.00465214
0.00452587
0.00440304
0.00428347
0.00416703
0.00405356
0.00394293
0.00383501
0.00372968
0.00362684
0.00352639
0.00342821
0.00333222
0.00323834
0.00314648
0.00305656
0.00296851
0.00288226
0.00279775
0.00271491
0.00263369
0.00255404
0.00247591
0.00239924
0.002324
0.00225013
0.0021776
0.00210636
0.00203637
0.00196759
0.00189997
0.00183351
0.00176816
0.00170391
0.0016407
0.00157845
0.00151706
0.00145644
0.00139661
0.0013378
0.00128047
0.00122516
0.00117205
0.00112044
0.00106806
0.00101065
0.000941668
0.000852882
0.000736942
0.000592815
0.00043157
0.000275869
0.00014974
6.60582e-05
2.21944e-05
5.15143e-06
7.18231e-07
4.98096e-08
1.36502e-09
1.17585e-11
2.71625e-13
2.48155e-13
2.47984e-13
2.47562e-13
2.45809e-13
2.41245e-13
2.33072e-13
2.21814e-13
2.09021e-13
1.96345e-13
1.84765e-13
1.74448e-13
1.65072e-13
1.56188e-13
1.47443e-13
1.38647e-13
1.29754e-13
1.2081e-13
1.11893e-13
1.03072e-13
9.43879e-14
8.58502e-14
7.74461e-14
6.91496e-14
6.09327e-14
5.27717e-14
4.46531e-14
3.65842e-14
2.86096e-14
2.08254e-14
1.34236e-14
6.88295e-15
0.137164
0.137164
0.137164
0.137164
0.137164
0.137164
0.137164
0.137164
0.137164
0.137164
0.137164
0.137164
0.137164
0.137164
0.137164
0.137164
0.137164
0.137164
0.137164
0.137164
0.137164
0.137164
0.137164
0.137163
0.137162
0.137157
0.137145
0.137109
0.136986
0.136473
0.133333
0.108008
0.0461495
0.0248251
0.0218556
0.0201781
0.0187198
0.0174732
0.016406
0.0154757
0.0146531
0.0139176
0.0132543
0.0126517
0.0121006
0.0115939
0.0111259
0.0106917
0.0102874
0.00990971
0.00955572
0.00922302
0.00890949
0.00861328
0.00833277
0.00806655
0.0078134
0.00757222
0.00734203
0.00712196
0.00691122
0.00670912
0.00651503
0.00632839
0.00614869
0.00597548
0.00580834
0.00564688
0.00549078
0.0053397
0.00519338
0.00505153
0.00491392
0.00478033
0.00465053
0.00452435
0.00440161
0.00428213
0.00416576
0.00405236
0.0039418
0.00383394
0.00372868
0.0036259
0.00352549
0.00342737
0.00333143
0.00323759
0.00314577
0.00305589
0.00296788
0.00288167
0.00279719
0.00271439
0.0026332
0.00255358
0.00247547
0.00239883
0.00232361
0.00224977
0.00217726
0.00210604
0.00203607
0.0019673
0.00189971
0.00183326
0.00176793
0.00170369
0.00164049
0.00157826
0.00151688
0.00145627
0.00139645
0.00133765
0.00128034
0.00122503
0.00117194
0.00112034
0.00106797
0.00101057
0.000941593
0.000852815
0.000736883
0.000592767
0.000431535
0.000275846
0.000149729
6.60541e-05
2.21933e-05
5.15124e-06
7.18209e-07
4.98079e-08
1.36496e-09
1.1758e-11
2.71625e-13
2.48156e-13
2.47985e-13
2.47562e-13
2.4581e-13
2.41246e-13
2.33073e-13
2.21815e-13
2.09022e-13
1.96346e-13
1.84765e-13
1.74449e-13
1.65072e-13
1.56188e-13
1.47443e-13
1.38647e-13
1.29754e-13
1.2081e-13
1.11893e-13
1.03072e-13
9.43881e-14
8.58504e-14
7.74462e-14
6.91498e-14
6.09328e-14
5.27718e-14
4.46532e-14
3.65843e-14
2.86096e-14
2.08254e-14
1.34236e-14
6.88299e-15
0.137164
0.137164
0.137164
0.137164
0.137164
0.137164
0.137164
0.137164
0.137164
0.137164
0.137164
0.137164
0.137164
0.137164
0.137164
0.137164
0.137164
0.137164
0.137164
0.137164
0.137164
0.137164
0.137164
0.137163
0.13716
0.137153
0.137133
0.137075
0.13688
0.136049
0.130609
0.0928132
0.0373416
0.0239516
0.021626
0.0199927
0.0185689
0.0173559
0.0163132
0.0154008
0.0145918
0.013867
0.0132121
0.0126162
0.0120705
0.0115683
0.0111039
0.0106727
0.0102709
0.00989528
0.00954301
0.00921174
0.00889939
0.00860417
0.00832449
0.00805897
0.00780642
0.00756576
0.00733603
0.00711637
0.006906
0.00670423
0.00651044
0.00632408
0.00614464
0.00597167
0.00580475
0.0056435
0.00548758
0.00533669
0.00519053
0.00504884
0.00491138
0.00477792
0.00464826
0.0045222
0.00439957
0.00428019
0.00416393
0.00405062
0.00394015
0.00383238
0.00372719
0.00362449
0.00352415
0.0034261
0.00333022
0.00323644
0.00314468
0.00305486
0.0029669
0.00288073
0.0027963
0.00271354
0.0026324
0.00255282
0.00247475
0.00239815
0.00232296
0.00224915
0.00217667
0.00210548
0.00203554
0.0019668
0.00189923
0.00183281
0.0017675
0.00170329
0.00164011
0.0015779
0.00151654
0.00145595
0.00139615
0.00133737
0.00128007
0.00122479
0.00117171
0.00112013
0.00106778
0.00101039
0.000941433
0.000852672
0.000736757
0.000592662
0.000431457
0.000275796
0.000149703
6.60444e-05
2.21909e-05
5.15091e-06
7.18189e-07
4.98075e-08
1.36495e-09
1.17577e-11
2.71624e-13
2.48157e-13
2.47985e-13
2.47563e-13
2.4581e-13
2.41247e-13
2.33074e-13
2.21815e-13
2.09022e-13
1.96346e-13
1.84766e-13
1.74449e-13
1.65072e-13
1.56188e-13
1.47444e-13
1.38648e-13
1.29755e-13
1.2081e-13
1.11893e-13
1.03073e-13
9.43882e-14
8.58505e-14
7.74463e-14
6.91499e-14
6.09329e-14
5.27719e-14
4.46533e-14
3.65844e-14
2.86097e-14
2.08255e-14
1.34237e-14
6.88303e-15
0.137164
0.137164
0.137164
0.137164
0.137164
0.137164
0.137164
0.137164
0.137164
0.137164
0.137164
0.137164
0.137164
0.137164
0.137164
0.137164
0.137164
0.137164
0.137164
0.137164
0.137164
0.137164
0.137163
0.137161
0.137156
0.137145
0.137112
0.137019
0.136694
0.135253
0.125279
0.0735675
0.03083
0.0233547
0.0213667
0.019774
0.0183944
0.0172194
0.0162042
0.0153123
0.014519
0.0138065
0.0131614
0.0125734
0.0120341
0.0115371
0.0110771
0.0106495
0.0102507
0.00987752
0.00952733
0.00919778
0.00888689
0.00859287
0.0083142
0.00804955
0.00779773
0.0075577
0.00732851
0.00710934
0.0068994
0.00669803
0.00650461
0.00631859
0.00613946
0.00596677
0.00580012
0.00563912
0.00548344
0.00533276
0.00518681
0.00504531
0.00490803
0.00477473
0.00464523
0.00451932
0.00439682
0.00427758
0.00416144
0.00404825
0.00393789
0.00383022
0.00372514
0.00362253
0.00352228
0.00342431
0.00332852
0.00323482
0.00314313
0.00305337
0.00296548
0.00287938
0.00279501
0.00271231
0.00263122
0.00255169
0.00247367
0.00239712
0.00232198
0.00224821
0.00217578
0.00210463
0.00203472
0.00196602
0.00189849
0.00183209
0.00176682
0.00170264
0.00163949
0.00157731
0.00151598
0.00145542
0.00139564
0.00133689
0.00127962
0.00122437
0.00117132
0.00111977
0.00106744
0.00101008
0.000941146
0.000852409
0.000736522
0.000592462
0.000431303
0.000275695
0.000149648
6.60221e-05
2.21849e-05
5.15001e-06
7.18133e-07
4.98073e-08
1.365e-09
1.17581e-11
2.71625e-13
2.48157e-13
2.47986e-13
2.47564e-13
2.45811e-13
2.41247e-13
2.33074e-13
2.21816e-13
2.09023e-13
1.96347e-13
1.84766e-13
1.7445e-13
1.65073e-13
1.56189e-13
1.47444e-13
1.38648e-13
1.29755e-13
1.20811e-13
1.11894e-13
1.03073e-13
9.43884e-14
8.58507e-14
7.74465e-14
6.915e-14
6.09331e-14
5.2772e-14
4.46534e-14
3.65845e-14
2.86098e-14
2.08255e-14
1.34237e-14
6.88307e-15
0.137164
0.137164
0.137164
0.137164
0.137164
0.137164
0.137164
0.137164
0.137164
0.137164
0.137164
0.137164
0.137164
0.137164
0.137164
0.137164
0.137164
0.137164
0.137164
0.137164
0.137164
0.137163
0.137162
0.137159
0.137151
0.137131
0.137077
0.136919
0.136356
0.133626
0.114497
0.0546684
0.0269212
0.0228822
0.0210714
0.0195248
0.0181978
0.0170645
0.0160795
0.0152104
0.0144347
0.0137361
0.0131022
0.0125231
0.0119912
0.0115002
0.0110452
0.0106218
0.0102265
0.00985626
0.00950852
0.00918103
0.00887185
0.00857927
0.00830181
0.00803818
0.00778723
0.00754795
0.00731941
0.0071008
0.00689138
0.00669048
0.00649748
0.00631185
0.00613308
0.00596073
0.00579438
0.00563368
0.00547827
0.00532785
0.00518214
0.00504086
0.00490379
0.0047707
0.00464138
0.00451564
0.00439331
0.00427423
0.00415823
0.00404519
0.00393496
0.00382742
0.00372245
0.00361996
0.00351982
0.00342195
0.00332625
0.00323265
0.00314105
0.00305138
0.00296357
0.00287754
0.00279325
0.00271062
0.0026296
0.00255013
0.00247218
0.00239568
0.0023206
0.00224689
0.0021745
0.00210341
0.00203355
0.00196489
0.0018974
0.00183106
0.00176583
0.00170168
0.00163858
0.00157644
0.00151515
0.00145462
0.00139489
0.00133617
0.00127894
0.00122372
0.00117071
0.0011192
0.00106691
0.00100958
0.000940682
0.000851978
0.000736129
0.000592122
0.000431035
0.000275512
0.000149545
6.59775e-05
2.21716e-05
5.1477e-06
7.17952e-07
4.98042e-08
1.36511e-09
1.17597e-11
2.71628e-13
2.48158e-13
2.47986e-13
2.47564e-13
2.45812e-13
2.41248e-13
2.33075e-13
2.21816e-13
2.09023e-13
1.96347e-13
1.84767e-13
1.7445e-13
1.65073e-13
1.56189e-13
1.47444e-13
1.38648e-13
1.29755e-13
1.20811e-13
1.11894e-13
1.03073e-13
9.43886e-14
8.58509e-14
7.74467e-14
6.91502e-14
6.09332e-14
5.27721e-14
4.46535e-14
3.65846e-14
2.86099e-14
2.08256e-14
1.34238e-14
6.8831e-15
0.137164
0.137164
0.137164
0.137164
0.137164
0.137164
0.137164
0.137164
0.137164
0.137164
0.137164
0.137164
0.137164
0.137164
0.137164
0.137164
0.137164
0.137164
0.137164
0.137164
0.137163
0.137162
0.13716
0.137154
0.13714
0.137106
0.137013
0.136733
0.135691
0.130022
0.09479
0.0396349
0.024982
0.0224464
0.020736
0.0192491
0.0179814
0.0168922
0.0159397
0.0150953
0.014339
0.0136558
0.0130343
0.0124653
0.0119416
0.0114576
0.0110082
0.0105896
0.0101983
0.0098314
0.00948649
0.00916138
0.00885419
0.00856329
0.00828725
0.00802482
0.00777489
0.00753647
0.00730869
0.00709074
0.0068819
0.00668153
0.00648901
0.00630382
0.00612547
0.0059535
0.00578751
0.00562714
0.00547205
0.00532192
0.00517648
0.00503546
0.00489863
0.00476576
0.00463666
0.00451112
0.00438899
0.00427008
0.00415426
0.00404138
0.0039313
0.00382391
0.00371909
0.00361672
0.00351671
0.00341896
0.00332338
0.00322988
0.00313839
0.00304882