/*--------------------------------*- C++ -*----------------------------------*\
  =========                 |
  \\      /  F ield         | OpenFOAM: The Open Source CFD Toolbox
   \\    /   O peration     | Website:  https://openfoam.org
    \\  /    A nd           | Version:  13
     \\/     M anipulation  |
\*---------------------------------------------------------------------------*/
FoamFile
{
    format      ascii;
    class       volScalarField;
    location    "0.0014";
    object      H2O;
}
// * * * * * * * * * * * * * * * * * * * * * * * * * * * * * * * * * * * * * //

dimensions      [];

internalField   nonuniform List<scalar> 
33334
(
0.112295
0.112295
0.112295
0.112295
0.112295
0.112295
0.112295
0.112295
0.112295
0.112295
0.112295
0.112295
0.112295
0.112295
0.112295
0.112295
0.112295
0.112295
0.112295
0.112295
0.112295
0.112295
0.112295
0.112295
0.112295
0.112295
0.112294
0.112292
0.112282
0.112241
0.111993
0.109558
0.0834551
0.0321455
0.018787
0.0169399
0.0156868
0.0145871
0.013648
0.0128402
0.0121327
0.0115047
0.0109417
0.0104326
0.00996891
0.00954408
0.00915279
0.00879073
0.00845437
0.00814075
0.00784734
0.00757199
0.00731285
0.00706832
0.00683698
0.00661758
0.00640907
0.00621053
0.00602113
0.00584013
0.00566685
0.00550071
0.00534119
0.00518783
0.00504019
0.00489791
0.00476063
0.00462805
0.00449988
0.00437585
0.00425574
0.00413933
0.0040264
0.00391678
0.00381029
0.00370678
0.00360609
0.00350809
0.00341265
0.00331965
0.00322899
0.00314055
0.00305425
0.00296998
0.00288767
0.00280723
0.00272859
0.00265167
0.00257641
0.00250275
0.00243062
0.00235997
0.00229074
0.00222289
0.00215636
0.00209113
0.00202713
0.00196434
0.00190271
0.00184222
0.00178281
0.00172447
0.00166715
0.00161082
0.00155545
0.00150102
0.00144751
0.0013949
0.00134314
0.00129217
0.00124189
0.00119225
0.00114326
0.00109511
0.00104817
0.00100289
0.000959414
0.000917157
0.000874259
0.000827218
0.000770676
0.000697891
0.00060286
0.000484781
0.000352762
0.000225376
0.000122263
5.39027e-05
1.80974e-05
4.19696e-06
5.8455e-07
4.04864e-08
1.10776e-09
9.52679e-12
2.22166e-13
2.03195e-13
2.03054e-13
2.02708e-13
2.0127e-13
1.97528e-13
1.90831e-13
1.8161e-13
1.71134e-13
1.60756e-13
1.51275e-13
1.4283e-13
1.35153e-13
1.27879e-13
1.20719e-13
1.13517e-13
1.06235e-13
9.8912e-14
9.1611e-14
8.43888e-14
7.72784e-14
7.02882e-14
6.34072e-14
5.66145e-14
4.98869e-14
4.32051e-14
3.65581e-14
2.99518e-14
2.34227e-14
1.70495e-14
1.09896e-14
5.63474e-15
0.112295
0.112295
0.112295
0.112295
0.112295
0.112295
0.112295
0.112295
0.112295
0.112295
0.112295
0.112295
0.112295
0.112295
0.112295
0.112295
0.112295
0.112295
0.112295
0.112295
0.112295
0.112295
0.112295
0.112295
0.112295
0.112295
0.112294
0.112292
0.112282
0.112241
0.111991
0.109552
0.0834312
0.0321366
0.0187868
0.01694
0.0156869
0.0145871
0.0136481
0.0128402
0.0121327
0.0115048
0.0109417
0.0104326
0.00996896
0.00954413
0.00915284
0.00879079
0.00845443
0.0081408
0.00784739
0.00757204
0.0073129
0.00706837
0.00683703
0.00661764
0.00640912
0.00621059
0.00602119
0.00584018
0.0056669
0.00550076
0.00534125
0.00518788
0.00504025
0.00489796
0.00476068
0.0046281
0.00449993
0.00437591
0.0042558
0.00413938
0.00402646
0.00391684
0.00381035
0.00370683
0.00360614
0.00350814
0.00341271
0.00331971
0.00322904
0.00314061
0.0030543
0.00297003
0.00288772
0.00280728
0.00272864
0.00265173
0.00257647
0.0025028
0.00243068
0.00236002
0.0022908
0.00222294
0.00215642
0.00209118
0.00202719
0.00196439
0.00190277
0.00184227
0.00178287
0.00172453
0.00166721
0.00161088
0.00155551
0.00150108
0.00144757
0.00139495
0.00134319
0.00129222
0.00124195
0.00119231
0.00114332
0.00109516
0.00104823
0.00100294
0.000959467
0.000917209
0.000874314
0.000827282
0.000770754
0.000697991
0.000602983
0.000484916
0.000352889
0.000225475
0.000122325
5.39337e-05
1.81089e-05
4.19997e-06
5.85043e-07
4.05284e-08
1.10921e-09
9.54193e-12
2.22199e-13
2.0319e-13
2.0305e-13
2.02704e-13
2.01267e-13
1.97526e-13
1.90831e-13
1.8161e-13
1.71135e-13
1.60756e-13
1.51275e-13
1.42829e-13
1.35152e-13
1.27878e-13
1.20718e-13
1.13516e-13
1.06235e-13
9.89116e-14
9.16106e-14
8.43884e-14
7.72781e-14
7.02878e-14
6.34069e-14
5.66142e-14
4.98866e-14
4.32048e-14
3.65579e-14
2.99516e-14
2.34225e-14
1.70495e-14
1.09895e-14
5.63474e-15
0.112295
0.112295
0.112295
0.112295
0.112295
0.112295
0.112295
0.112295
0.112295
0.112295
0.112295
0.112295
0.112295
0.112295
0.112295
0.112295
0.112295
0.112295
0.112295
0.112295
0.112295
0.112295
0.112295
0.112295
0.112295
0.112295
0.112294
0.112291
0.112282
0.11224
0.111987
0.109526
0.0833006
0.0320809
0.0187849
0.0169401
0.0156869
0.0145871
0.0136481
0.0128403
0.0121328
0.0115048
0.0109418
0.0104326
0.009969
0.00954417
0.00915288
0.00879083
0.00845447
0.00814084
0.00784743
0.00757208
0.00731295
0.00706841
0.00683707
0.00661768
0.00640917
0.00621063
0.00602123
0.00584023
0.00566695
0.00550081
0.0053413
0.00518793
0.0050403
0.00489801
0.00476074
0.00462816
0.00449998
0.00437596
0.00425586
0.00413944
0.00402651
0.00391689
0.00381041
0.00370689
0.0036062
0.0035082
0.00341277
0.00331977
0.00322911
0.00314067
0.00305436
0.0029701
0.00288779
0.00280735
0.00272871
0.00265179
0.00257653
0.00250287
0.00243074
0.00236009
0.00229086
0.00222301
0.00215649
0.00209125
0.00202725
0.00196446
0.00190284
0.00184234
0.00178294
0.0017246
0.00166728
0.00161095
0.00155558
0.00150115
0.00144764
0.00139502
0.00134327
0.00129229
0.00124202
0.00119238
0.00114339
0.00109524
0.0010483
0.00100301
0.000959536
0.000917278
0.000874387
0.000827366
0.000770861
0.000698129
0.000603157
0.000485115
0.000353086
0.000225638
0.000122434
5.39911e-05
1.81316e-05
4.20608e-06
5.86031e-07
4.06085e-08
1.1118e-09
9.5678e-12
2.22252e-13
2.03181e-13
2.03041e-13
2.02695e-13
2.01258e-13
1.9752e-13
1.90827e-13
1.81607e-13
1.71132e-13
1.60754e-13
1.51273e-13
1.42826e-13
1.35149e-13
1.27875e-13
1.20716e-13
1.13514e-13
1.06233e-13
9.89095e-14
9.16087e-14
8.43867e-14
7.72765e-14
7.02864e-14
6.34056e-14
5.66131e-14
4.98857e-14
4.32041e-14
3.65572e-14
2.99512e-14
2.34222e-14
1.70493e-14
1.09894e-14
5.63472e-15
0.112295
0.112295
0.112295
0.112295
0.112295
0.112295
0.112295
0.112295
0.112295
0.112295
0.112295
0.112295
0.112295
0.112295
0.112295
0.112295
0.112295
0.112295
0.112295
0.112295
0.112295
0.112295
0.112295
0.112295
0.112295
0.112295
0.112294
0.112291
0.112282
0.112238
0.111977
0.109453
0.0829077
0.0319052
0.0187777
0.0169401
0.0156867
0.0145869
0.013648
0.0128402
0.0121327
0.0115048
0.0109418
0.0104326
0.00996899
0.00954417
0.00915288
0.00879083
0.00845448
0.00814085
0.00784744
0.0075721
0.00731296
0.00706843
0.00683709
0.0066177
0.00640918
0.00621065
0.00602125
0.00584025
0.00566697
0.00550083
0.00534132
0.00518795
0.00504032
0.00489804
0.00476076
0.00462818
0.00450001
0.00437599
0.00425588
0.00413947
0.00402654
0.00391692
0.00381043
0.00370692
0.00360623
0.00350823
0.0034128
0.0033198
0.00322914
0.0031407
0.0030544
0.00297013
0.00288782
0.00280738
0.00272874
0.00265183
0.00257657
0.00250291
0.00243078
0.00236013
0.0022909
0.00222305
0.00215653
0.00209129
0.0020273
0.0019645
0.00190288
0.00184238
0.00178298
0.00172464
0.00166732
0.00161099
0.00155562
0.00150119
0.00144768
0.00139507
0.00134331
0.00129234
0.00124207
0.00119243
0.00114344
0.00109529
0.00104835
0.00100306
0.00095958
0.000917322
0.000874434
0.000827422
0.000770934
0.000698228
0.000603285
0.000485267
0.000353243
0.000225774
0.00012253
5.40444e-05
1.81536e-05
4.21223e-06
5.87046e-07
4.06911e-08
1.11443e-09
9.59364e-12
2.22302e-13
2.0317e-13
2.0303e-13
2.02684e-13
2.01249e-13
1.97512e-13
1.9082e-13
1.81602e-13
1.71128e-13
1.60749e-13
1.51268e-13
1.42822e-13
1.35145e-13
1.27872e-13
1.20712e-13
1.13511e-13
1.0623e-13
9.89071e-14
9.16066e-14
8.43848e-14
7.72749e-14
7.0285e-14
6.34044e-14
5.66121e-14
4.98849e-14
4.32035e-14
3.65568e-14
2.99509e-14
2.34221e-14
1.70492e-14
1.09894e-14
5.63474e-15
0.112295
0.112295
0.112295
0.112295
0.112295
0.112295
0.112295
0.112295
0.112295
0.112295
0.112295
0.112295
0.112295
0.112295
0.112295
0.112295
0.112295
0.112295
0.112295
0.112295
0.112295
0.112295
0.112295
0.112295
0.112295
0.112295
0.112294
0.112291
0.11228
0.112234
0.111956
0.109302
0.0820365
0.0315109
0.0187593
0.0169389
0.0156854
0.0145858
0.0136472
0.0128397
0.0121324
0.0115045
0.0109416
0.0104325
0.00996889
0.0095441
0.00915283
0.00879079
0.00845445
0.00814083
0.00784742
0.00757208
0.00731295
0.00706842
0.00683709
0.00661769
0.00640918
0.00621065
0.00602125
0.00584025
0.00566697
0.00550084
0.00534132
0.00518796
0.00504032
0.00489804
0.00476077
0.00462818
0.00450001
0.00437599
0.00425589
0.00413947
0.00402655
0.00391693
0.00381044
0.00370693
0.00360624
0.00350824
0.00341281
0.00331981
0.00322915
0.00314071
0.00305441
0.00297014
0.00288783
0.00280739
0.00272875
0.00265184
0.00257658
0.00250292
0.00243079
0.00236014
0.00229092
0.00222306
0.00215654
0.0020913
0.00202731
0.00196452
0.00190289
0.0018424
0.001783
0.00172466
0.00166734
0.00161101
0.00155564
0.00150121
0.0014477
0.00139509
0.00134333
0.00129236
0.00124209
0.00119245
0.00114346
0.00109531
0.00104837
0.00100308
0.000959598
0.000917339
0.000874453
0.000827445
0.000770965
0.000698272
0.000603345
0.000485342
0.000353324
0.000225846
0.000122583
5.4075e-05
1.81667e-05
4.21603e-06
5.877e-07
4.07463e-08
1.11626e-09
9.61194e-12
2.22339e-13
2.03164e-13
2.03023e-13
2.02678e-13
2.01243e-13
1.97506e-13
1.90815e-13
1.81597e-13
1.71124e-13
1.60746e-13
1.51265e-13
1.42819e-13
1.35143e-13
1.27869e-13
1.2071e-13
1.13509e-13
1.06228e-13
9.89057e-14
9.16054e-14
8.43838e-14
7.72741e-14
7.02844e-14
6.3404e-14
5.66118e-14
4.98847e-14
4.32033e-14
3.65567e-14
2.99508e-14
2.3422e-14
1.70492e-14
1.09894e-14
5.63478e-15
0.112295
0.112295
0.112295
0.112295
0.112295
0.112295
0.112295
0.112295
0.112295
0.112295
0.112295
0.112295
0.112295
0.112295
0.112295
0.112295
0.112295
0.112295
0.112295
0.112295
0.112295
0.112295
0.112295
0.112295
0.112295
0.112295
0.112294
0.11229
0.112279
0.112226
0.11192
0.109029
0.080435
0.0308007
0.0187231
0.0169344
0.0156811
0.0145823
0.0136447
0.0128379
0.012131
0.0115035
0.0109408
0.0104319
0.00996846
0.00954376
0.00915256
0.00879059
0.00845428
0.0081407
0.00784732
0.007572
0.00731289
0.00706837
0.00683704
0.00661766
0.00640916
0.00621063
0.00602123
0.00584023
0.00566696
0.00550083
0.00534131
0.00518795
0.00504032
0.00489804
0.00476076
0.00462818
0.00450001
0.00437599
0.00425589
0.00413947
0.00402655
0.00391693
0.00381044
0.00370693
0.00360624
0.00350824
0.00341281
0.00331981
0.00322915
0.00314071
0.00305441
0.00297014
0.00288783
0.00280739
0.00272875
0.00265184
0.00257658
0.00250292
0.00243079
0.00236014
0.00229092
0.00222307
0.00215655
0.00209131
0.00202731
0.00196452
0.0019029
0.0018424
0.001783
0.00172466
0.00166734
0.00161101
0.00155564
0.00150122
0.00144771
0.00139509
0.00134333
0.00129236
0.00124209
0.00119245
0.00114346
0.00109531
0.00104837
0.00100308
0.000959601
0.000917343
0.000874457
0.00082745
0.000770973
0.000698284
0.000603363
0.000485366
0.000353351
0.000225871
0.000122602
5.40861e-05
1.81716e-05
4.21754e-06
5.87979e-07
4.07717e-08
1.11715e-09
9.62144e-12
2.2236e-13
2.03161e-13
2.0302e-13
2.02675e-13
2.0124e-13
1.97504e-13
1.90812e-13
1.81595e-13
1.71122e-13
1.60744e-13
1.51264e-13
1.42818e-13
1.35142e-13
1.27868e-13
1.20709e-13
1.13508e-13
1.06228e-13
9.89054e-14
9.16052e-14
8.43836e-14
7.72739e-14
7.02843e-14
6.34039e-14
5.66117e-14
4.98846e-14
4.32033e-14
3.65567e-14
2.99509e-14
2.34221e-14
1.70493e-14
1.09895e-14
5.63481e-15
0.112295
0.112295
0.112295
0.112295
0.112295
0.112295
0.112295
0.112295
0.112295
0.112295
0.112295
0.112295
0.112295
0.112295
0.112295
0.112295
0.112295
0.112295
0.112295
0.112295
0.112295
0.112295
0.112295
0.112295
0.112295
0.112295
0.112293
0.112289
0.112275
0.112214
0.111861
0.108573
0.0778494
0.0297122
0.018664
0.0169233
0.0156711
0.0145743
0.013639
0.0128336
0.0121278
0.011501
0.0109389
0.0104304
0.00996724
0.00954279
0.00915178
0.00878996
0.00845377
0.00814028
0.00784697
0.00757171
0.00731265
0.00706817
0.00683687
0.00661751
0.00640903
0.00621052
0.00602114
0.00584016
0.00566689
0.00550077
0.00534127
0.00518791
0.00504028
0.00489801
0.00476074
0.00462816
0.0045
0.00437598
0.00425588
0.00413946
0.00402654
0.00391692
0.00381044
0.00370693
0.00360624
0.00350824
0.0034128
0.00331981
0.00322915
0.00314071
0.00305441
0.00297014
0.00288783
0.00280739
0.00272875
0.00265184
0.00257658
0.00250292
0.00243079
0.00236014
0.00229092
0.00222307
0.00215655
0.00209131
0.00202731
0.00196452
0.0019029
0.0018424
0.001783
0.00172466
0.00166734
0.00161101
0.00155565
0.00150122
0.00144771
0.00139509
0.00134333
0.00129236
0.00124209
0.00119245
0.00114346
0.00109531
0.00104837
0.00100308
0.000959602
0.000917343
0.000874457
0.000827451
0.000770973
0.000698286
0.000603366
0.00048537
0.000353355
0.000225876
0.000122606
5.40883e-05
1.81727e-05
4.21792e-06
5.8806e-07
4.07801e-08
1.11748e-09
9.62517e-12
2.22369e-13
2.0316e-13
2.0302e-13
2.02674e-13
2.01239e-13
1.97503e-13
1.90812e-13
1.81595e-13
1.71122e-13
1.60744e-13
1.51264e-13
1.42818e-13
1.35141e-13
1.27868e-13
1.20709e-13
1.13508e-13
1.06228e-13
9.89053e-14
9.16052e-14
8.43836e-14
7.7274e-14
7.02843e-14
6.34039e-14
5.66118e-14
4.98847e-14
4.32033e-14
3.65568e-14
2.99509e-14
2.34221e-14
1.70493e-14
1.09895e-14
5.63485e-15
0.112295
0.112295
0.112295
0.112295
0.112295
0.112295
0.112295
0.112295
0.112295
0.112295
0.112295
0.112295
0.112295
0.112295
0.112295
0.112295
0.112295
0.112295
0.112295
0.112295
0.112295
0.112295
0.112295
0.112295
0.112295
0.112294
0.112293
0.112288
0.112271
0.112196
0.111768
0.107826
0.0740826
0.0282655
0.0185799
0.0169021
0.0156523
0.0145595
0.013628
0.0128253
0.0121213
0.011496
0.0109348
0.0104272
0.00996463
0.00954066
0.00915004
0.00878852
0.00845258
0.00813928
0.00784613
0.007571
0.00731203
0.00706764
0.00683641
0.00661711
0.00640868
0.00621021
0.00602087
0.00583992
0.00566668
0.00550059
0.0053411
0.00518777
0.00504016
0.0048979
0.00476064
0.00462808
0.00449992
0.00437592
0.00425582
0.00413942
0.0040265
0.00391689
0.00381041
0.0037069
0.00360622
0.00350822
0.00341279
0.0033198
0.00322914
0.0031407
0.0030544
0.00297014
0.00288783
0.00280739
0.00272875
0.00265184
0.00257658
0.00250292
0.00243079
0.00236014
0.00229092
0.00222307
0.00215654
0.00209131
0.00202731
0.00196452
0.0019029
0.0018424
0.001783
0.00172466
0.00166734
0.00161101
0.00155564
0.00150122
0.00144771
0.00139509
0.00134333
0.00129236
0.00124209
0.00119245
0.00114346
0.00109531
0.00104837
0.00100308
0.000959601
0.000917343
0.000874456
0.00082745
0.000770972
0.000698284
0.000603365
0.000485368
0.000353354
0.000225875
0.000122605
5.40883e-05
1.81727e-05
4.21797e-06
5.88076e-07
4.07821e-08
1.11757e-09
9.62639e-12
2.22373e-13
2.0316e-13
2.0302e-13
2.02674e-13
2.01239e-13
1.97503e-13
1.90812e-13
1.81595e-13
1.71122e-13
1.60744e-13
1.51264e-13
1.42818e-13
1.35141e-13
1.27868e-13
1.20709e-13
1.13508e-13
1.06228e-13
9.89054e-14
9.16052e-14
8.43837e-14
7.7274e-14
7.02844e-14
6.3404e-14
5.66118e-14
4.98848e-14
4.32034e-14
3.65569e-14
2.9951e-14
2.34222e-14
1.70494e-14
1.09896e-14
5.63488e-15
0.112295
0.112295
0.112295
0.112295
0.112295
0.112295
0.112295
0.112295
0.112295
0.112295
0.112295
0.112295
0.112295
0.112295
0.112295
0.112295
0.112295
0.112295
0.112295
0.112295
0.112295
0.112295
0.112295
0.112295
0.112295
0.112294
0.112292
0.112285
0.112263
0.112166
0.111622
0.10663
0.0688188
0.0265324
0.0184742
0.0168669
0.0156215
0.0145352
0.0136097
0.0128112
0.0121103
0.0114872
0.0109278
0.0104214
0.00995993
0.00953679
0.00914682
0.00878583
0.00845031
0.00813735
0.00784448
0.00756957
0.00731079
0.00706655
0.00683545
0.00661626
0.00640793
0.00620954
0.00602027
0.00583937
0.0056662
0.00550015
0.00534071
0.00518742
0.00503984
0.00489762
0.00476039
0.00462785
0.00449972
0.00437573
0.00425565
0.00413927
0.00402637
0.00391677
0.0038103
0.0037068
0.00360613
0.00350815
0.00341272
0.00331974
0.00322908
0.00314066
0.00305436
0.0029701
0.00288779
0.00280736
0.00272873
0.00265182
0.00257656
0.0025029
0.00243078
0.00236013
0.00229091
0.00222306
0.00215654
0.0020913
0.00202731
0.00196452
0.00190289
0.0018424
0.001783
0.00172466
0.00166734
0.00161101
0.00155564
0.00150121
0.0014477
0.00139509
0.00134333
0.00129236
0.00124209
0.00119245
0.00114346
0.00109531
0.00104837
0.00100308
0.0009596
0.000917342
0.000874455
0.000827448
0.00077097
0.000698282
0.000603361
0.000485364
0.00035335
0.000225872
0.000122603
5.40874e-05
1.81725e-05
4.21793e-06
5.88075e-07
4.07825e-08
1.1176e-09
9.62682e-12
2.22375e-13
2.03161e-13
2.0302e-13
2.02675e-13
2.0124e-13
1.97503e-13
1.90812e-13
1.81595e-13
1.71122e-13
1.60744e-13
1.51264e-13
1.42818e-13
1.35142e-13
1.27869e-13
1.2071e-13
1.13508e-13
1.06228e-13
9.89055e-14
9.16054e-14
8.43839e-14
7.72742e-14
7.02845e-14
6.34041e-14
5.66119e-14
4.98848e-14
4.32035e-14
3.65569e-14
2.9951e-14
2.34222e-14
1.70494e-14
1.09896e-14
5.63491e-15
0.112295
0.112295
0.112295
0.112295
0.112295
0.112295
0.112295
0.112295
0.112295
0.112295
0.112295
0.112295
0.112295
0.112295
0.112295
0.112295
0.112295
0.112295
0.112295
0.112295
0.112295
0.112295
0.112295
0.112295
0.112295
0.112294
0.112291
0.112282
0.112251
0.11212
0.111384
0.104747
0.0620851
0.0246646
0.0183513
0.0168143
0.0155755
0.0144993
0.0135824
0.0127899
0.0120934
0.0114736
0.0109167
0.0104124
0.00995242
0.00953053
0.00914157
0.00878139
0.00844653
0.00813411
0.00784167
0.00756713
0.00730864
0.00706465
0.00683375
0.00661473
0.00640656
0.0062083
0.00601915
0.00583835
0.00566526
0.0054993
0.00533994
0.00518671
0.0050392
0.00489703
0.00475985
0.00462736
0.00449927
0.00437532
0.00425528
0.00413893
0.00402606
0.00391648
0.00381004
0.00370657
0.00360592
0.00350795
0.00341254
0.00331957
0.00322894
0.00314052
0.00305424
0.00296999
0.00288769
0.00280727
0.00272864
0.00265174
0.0025765
0.00250284
0.00243073
0.00236008
0.00229086
0.00222302
0.0021565
0.00209127
0.00202728
0.00196449
0.00190287
0.00184238
0.00178298
0.00172464
0.00166733
0.001611
0.00155563
0.00150121
0.0014477
0.00139508
0.00134333
0.00129236
0.00124209
0.00119245
0.00114346
0.00109531
0.00104837
0.00100308
0.000959598
0.000917339
0.000874452
0.000827446
0.000770967
0.000698277
0.000603356
0.000485358
0.000353344
0.000225866
0.0001226
5.40855e-05
1.81719e-05
4.2178e-06
5.88062e-07
4.07821e-08
1.11761e-09
9.627e-12
2.22376e-13
2.03161e-13
2.03021e-13
2.02675e-13
2.0124e-13
1.97504e-13
1.90813e-13
1.81596e-13
1.71123e-13
1.60745e-13
1.51264e-13
1.42819e-13
1.35142e-13
1.27869e-13
1.2071e-13
1.13509e-13
1.06228e-13
9.89057e-14
9.16055e-14
8.4384e-14
7.72743e-14
7.02846e-14
6.34042e-14
5.6612e-14
4.98849e-14
4.32036e-14
3.6557e-14
2.99511e-14
2.34223e-14
1.70494e-14
1.09897e-14
5.63495e-15
0.112295
0.112295
0.112295
0.112295
0.112295
0.112295
0.112295
0.112295
0.112295
0.112295
0.112295
0.112295
0.112295
0.112295
0.112295
0.112295
0.112295
0.112295
0.112295
0.112295
0.112295
0.112295
0.112295
0.112295
0.112294
0.112293
0.112289
0.112276
0.112232
0.112047
0.111
0.101647
0.0543088
0.0228984
0.0182127
0.016741
0.0155119
0.0144497
0.0135443
0.01276
0.0120694
0.0114541
0.0109007
0.0103991
0.00994141
0.00952129
0.00913376
0.00877474
0.00844083
0.00812919
0.00783739
0.00756336
0.00730531
0.00706168
0.00683108
0.00661232
0.00640437
0.0062063
0.00601732
0.00583667
0.00566372
0.00549788
0.00533862
0.0051855
0.00503808
0.004896
0.0047589
0.00462648
0.00449846
0.00437457
0.00425459
0.00413828
0.00402546
0.00391593
0.00380953
0.0037061
0.00360548
0.00350755
0.00341217
0.00331923
0.00322862
0.00314023
0.00305396
0.00296974
0.00288746
0.00280706
0.00272845
0.00265156
0.00257633
0.00250269
0.00243058
0.00235995
0.00229075
0.00222291
0.0021564
0.00209118
0.0020272
0.00196442
0.0019028
0.00184232
0.00178293
0.00172459
0.00166728
0.00161096
0.0015556
0.00150117
0.00144767
0.00139506
0.0013433
0.00129234
0.00124207
0.00119243
0.00114344
0.00109529
0.00104836
0.00100307
0.000959587
0.000917329
0.000874444
0.000827438
0.000770959
0.000698269
0.000603347
0.000485349
0.000353336
0.00022586
0.000122596
5.40834e-05
1.81711e-05
4.2176e-06
5.88036e-07
4.07806e-08
1.11758e-09
9.62696e-12
2.22377e-13
2.03162e-13
2.03021e-13
2.02676e-13
2.01241e-13
1.97505e-13
1.90814e-13
1.81597e-13
1.71123e-13
1.60745e-13
1.51265e-13
1.42819e-13
1.35142e-13
1.27869e-13
1.2071e-13
1.13509e-13
1.06228e-13
9.89059e-14
9.16057e-14
8.43841e-14
7.72744e-14
7.02847e-14
6.34043e-14
5.66121e-14
4.9885e-14
4.32036e-14
3.6557e-14
2.99511e-14
2.34223e-14
1.70495e-14
1.09897e-14
5.63498e-15
0.112295
0.112295
0.112295
0.112295
0.112295
0.112295
0.112295
0.112295
0.112295
0.112295
0.112295
0.112295
0.112295
0.112295
0.112295
0.112295
0.112295
0.112295
0.112295
0.112295
0.112295
0.112295
0.112295
0.112295
0.112294
0.112292
0.112285
0.112266
0.112201
0.111928
0.110336
0.0965796
0.0459449
0.0214132
0.0180609
0.0166437
0.015429
0.0143853
0.0134943
0.0127202
0.0120372
0.0114279
0.0108791
0.0103811
0.00992631
0.00950854
0.00912292
0.00876547
0.00843284
0.00812225
0.00783131
0.007558
0.00730055
0.0070574
0.00682721
0.0066088
0.00640115
0.00620336
0.0060146
0.00583417
0.0056614
0.00549572
0.00533662
0.00518364
0.00503635
0.00489439
0.0047574
0.00462509
0.00449716
0.00437336
0.00425345
0.00413723
0.00402447
0.00391501
0.00380867
0.00370529
0.00360473
0.00350684
0.00341151
0.00331861
0.00322804
0.00313969
0.00305346
0.00296927
0.00288702
0.00280665
0.00272806
0.0026512
0.00257599
0.00250238
0.00243029
0.00235968
0.00229049
0.00222267
0.00215618
0.00209097
0.00202701
0.00196424
0.00190264
0.00184217
0.00178278
0.00172446
0.00166716
0.00161084
0.00155549
0.00150108
0.00144758
0.00139497
0.00134323
0.00129227
0.001242
0.00119237
0.00114339
0.00109524
0.00104831
0.00100302
0.00095955
0.000917296
0.000874414
0.000827412
0.000770935
0.000698247
0.000603328
0.000485333
0.000353323
0.000225851
0.000122591
5.40813e-05
1.81703e-05
4.21743e-06
5.88009e-07
4.07786e-08
1.11753e-09
9.62661e-12
2.22377e-13
2.03163e-13
2.03022e-13
2.02677e-13
2.01242e-13
1.97506e-13
1.90814e-13
1.81597e-13
1.71124e-13
1.60746e-13
1.51265e-13
1.42819e-13
1.35143e-13
1.27869e-13
1.2071e-13
1.13509e-13
1.06229e-13
9.89061e-14
9.16058e-14
8.43843e-14
7.72745e-14
7.02848e-14
6.34044e-14
5.66122e-14
4.98851e-14
4.32037e-14
3.65571e-14
2.99512e-14
2.34224e-14
1.70495e-14
1.09897e-14
5.63501e-15
0.112295
0.112295
0.112295
0.112295
0.112295
0.112295
0.112295
0.112295
0.112295
0.112295
0.112295
0.112295
0.112295
0.112295
0.112295
0.112295
0.112295
0.112295
0.112295
0.112295
0.112295
0.112295
0.112295
0.112294
0.112293
0.112289
0.112279
0.11225
0.11215
0.111729
0.109158
0.0884254
0.0377822
0.0203241
0.017893
0.0165197
0.0153257
0.0143052
0.0134315
0.0126699
0.0119963
0.0113942
0.0108512
0.0103578
0.00990664
0.00949184
0.00910866
0.0087532
0.00842222
0.00811299
0.00782318
0.0075508
0.00729412
0.00705162
0.00682196
0.00660401
0.00639676
0.00619931
0.00601085
0.00583068
0.00565815
0.0054927
0.0053338
0.005181
0.00503388
0.00489207
0.00475523
0.00462305
0.00449525
0.00437157
0.00425177
0.00413564
0.00402299
0.00391361
0.00380735
0.00370405
0.00360356
0.00350574
0.00341047
0.00331763
0.00322712
0.00313882
0.00305264
0.00296849
0.00288629
0.00280596
0.00272741
0.00265059
0.00257542
0.00250183
0.00242978
0.0023592
0.00229003
0.00222224
0.00215578
0.00209059
0.00202665
0.0019639
0.00190232
0.00184187
0.0017825
0.0017242
0.00166691
0.00161061
0.00155527
0.00150087
0.00144739
0.00139479
0.00134306
0.00129211
0.00124186
0.00119223
0.00114326
0.00109512
0.0010482
0.00100292
0.000959457
0.000917212
0.000874339
0.000827343
0.000770874
0.000698192
0.00060328
0.000485293
0.000353294
0.000225833
0.000122582
5.40779e-05
1.81694e-05
4.21727e-06
5.87991e-07
4.07773e-08
1.11748e-09
9.62615e-12
2.22377e-13
2.03163e-13
2.03023e-13
2.02677e-13
2.01242e-13
1.97506e-13
1.90815e-13
1.81598e-13
1.71124e-13
1.60746e-13
1.51266e-13
1.4282e-13
1.35143e-13
1.2787e-13
1.20711e-13
1.13509e-13
1.06229e-13
9.89062e-14
9.1606e-14
8.43844e-14
7.72747e-14
7.0285e-14
6.34045e-14
5.66123e-14
4.98852e-14
4.32038e-14
3.65572e-14
2.99513e-14
2.34225e-14
1.70496e-14
1.09898e-14
5.63504e-15
0.112295
0.112295
0.112295
0.112295
0.112295
0.112295
0.112295
0.112295
0.112295
0.112295
0.112295
0.112295
0.112295
0.112295
0.112295
0.112295
0.112295
0.112295
0.112295
0.112295
0.112295
0.112295
0.112295
0.112294
0.112291
0.112286
0.112269
0.112222
0.112063
0.111382
0.106928
0.0759853
0.0305713
0.019609
0.017705
0.0163678
0.0152022
0.0142091
0.0133555
0.0126085
0.0119462
0.0113528
0.0108166
0.0103287
0.00988203
0.00947086
0.00909065
0.00873766
0.00840872
0.00810118
0.00781278
0.00754157
0.00728586
0.00704416
0.00681519
0.00659781
0.00639105
0.00619402
0.00600594
0.00582611
0.00565388
0.00548869
0.00533004
0.00517747
0.00503056
0.00488895
0.00475229
0.00462028
0.00449264
0.0043691
0.00424944
0.00413344
0.00402091
0.00391164
0.00380549
0.00370228
0.00360189
0.00350416
0.00340897
0.00331621
0.00322576
0.00313753
0.00305142
0.00296734
0.00288519
0.00280491
0.00272642
0.00264965
0.00257452
0.00250098
0.00242897
0.00235843
0.00228931
0.00222155
0.00215512
0.00208997
0.00202606
0.00196334
0.00190179
0.00184136
0.00178202
0.00172374
0.00166648
0.0016102
0.00155488
0.0015005
0.00144704
0.00139446
0.00134275
0.00129181
0.00124158
0.00119197
0.00114301
0.00109489
0.00104798
0.00100272
0.00095927
0.00091704
0.000874182
0.0008272
0.000770743
0.000698075
0.000603176
0.000485207
0.00035323
0.000225792
0.000122561
5.40699e-05
1.81675e-05
4.21701e-06
5.87975e-07
4.07769e-08
1.11748e-09
9.62596e-12
2.22376e-13
2.03164e-13
2.03023e-13
2.02678e-13
2.01243e-13
1.97507e-13
1.90815e-13
1.81598e-13
1.71125e-13
1.60747e-13
1.51266e-13
1.4282e-13
1.35143e-13
1.2787e-13
1.20711e-13
1.1351e-13
1.06229e-13
9.89064e-14
9.16062e-14
8.43846e-14
7.72748e-14
7.02851e-14
6.34046e-14
5.66124e-14
4.98853e-14
4.32039e-14
3.65573e-14
2.99513e-14
2.34225e-14
1.70496e-14
1.09898e-14
5.63507e-15
0.112295
0.112295
0.112295
0.112295
0.112295
0.112295
0.112295
0.112295
0.112295
0.112295
0.112295
0.112295
0.112295
0.112295
0.112295
0.112295
0.112295
0.112295
0.112295
0.112295
0.112295
0.112295
0.112294
0.112293
0.112289
0.112279
0.112253
0.112176
0.111911
0.11073
0.102565
0.0602291
0.0252403
0.0191203
0.0174927
0.0161888
0.0150593
0.0140974
0.0132663
0.0125361
0.0118866
0.0113033
0.0107752
0.0102937
0.00985222
0.00944534
0.00906869
0.00871863
0.00839213
0.00808664
0.00779994
0.00753015
0.00727562
0.00703491
0.00680676
0.00659009
0.00638393
0.00618742
0.00599979
0.00582035
0.00564848
0.00548362
0.00532527
0.00517297
0.00502632
0.00488494
0.0047485
0.0046167
0.00448924
0.00436589
0.00424639
0.00413055
0.00401816
0.00390903
0.00380301
0.00369992
0.00359964
0.00350202
0.00340693
0.00331427
0.00322392
0.00313577
0.00304974
0.00296573
0.00288366
0.00280345
0.00272503
0.00264832
0.00257325
0.00249977
0.00242781
0.00235732
0.00228825
0.00222054
0.00215416
0.00208905
0.00202517
0.0019625
0.00190098
0.00184059
0.00178129
0.00172304
0.00166581
0.00160956
0.00155427
0.00149992
0.00144648
0.00139393
0.00134224
0.00129133
0.00124112
0.00119154
0.0011426
0.0010945
0.00104762
0.00100238
0.000958949
0.000916742
0.000873906
0.000826945
0.000770508
0.00069786
0.000602984
0.000485044
0.000353104
0.000225709
0.000122516
5.40517e-05
1.81626e-05
4.21626e-06
5.87929e-07
4.07768e-08
1.11751e-09
9.62626e-12
2.22377e-13
2.03164e-13
2.03024e-13
2.02678e-13
2.01243e-13
1.97507e-13
1.90816e-13
1.81599e-13
1.71125e-13
1.60747e-13
1.51266e-13
1.4282e-13
1.35144e-13
1.2787e-13
1.20711e-13
1.1351e-13
1.06229e-13
9.89066e-14
9.16063e-14
8.43847e-14
7.7275e-14
7.02852e-14
6.34048e-14
5.66125e-14
4.98854e-14
4.3204e-14
3.65573e-14
2.99514e-14
2.34226e-14
1.70497e-14
1.09899e-14
5.63511e-15
0.112295
0.112295
0.112295
0.112295
0.112295
0.112295
0.112295
0.112295
0.112295
0.112295
0.112295
0.112295
0.112295
0.112295
0.112295
0.112295
0.112295
0.112295
0.112295
0.112295
0.112295
0.112294
0.112293
0.112291
0.112284
0.112268
0.112224
0.112094
0.111633
0.109398
0.093738
0.0447565
0.0220401
0.0187334
0.017251
0.0159848
0.0148984
0.0139705
0.0131642
0.0124526
0.0118176
0.0112456
0.0107266
0.0102525
0.00981707
0.00941515
0.0090426
0.00869597
0.00837234
0.00806923
0.00778454
0.00751643
0.0072633
0.00702377
0.00679662
0.00658079
0.00637534
0.00617944
0.00599234
0.00581336
0.00564191
0.00547743
0.00531943
0.00516745
0.0050211
0.00488
0.00474381
0.00461224
0.00448501
0.00436187
0.00424257
0.00412691
0.00401469
0.00390573
0.00379985
0.00369691
0.00359677
0.00349927
0.00340431
0.00331176
0.00322151
0.00313347
0.00304754
0.00296363
0.00288165
0.00280152
0.00272318
0.00264654
0.00257155
0.00249814
0.00242625
0.00235582
0.00228681
0.00221916
0.00215283
0.00208777
0.00202395
0.00196132
0.00189985
0.00183951
0.00178025
0.00172204
0.00166485
0.00160864
0.00155339
0.00149907
0.00144567
0.00139315
0.00134149
0.00129062
0.00124044
0.00119088
0.00114198
0.00109391
0.00104706
0.00100185
0.000958454
0.000916279
0.000873473
0.000826538
0.000770128
0.000697507
0.000602662
0.000484765
0.000352885
0.000225559
0.000122431
5.40152e-05
1.81517e-05
4.21438e-06
5.87781e-07
4.07743e-08
1.1176e-09
9.62756e-12
2.2238e-13
2.03165e-13
2.03024e-13
2.02679e-13
2.01244e-13
1.97508e-13
1.90816e-13
1.81599e-13
1.71126e-13
1.60748e-13
1.51267e-13
1.42821e-13
1.35144e-13
1.27871e-13
1.20711e-13
1.1351e-13
1.06229e-13
9.89069e-14
9.16065e-14
8.43849e-14
7.72751e-14
7.02854e-14
6.34049e-14
5.66126e-14
4.98855e-14
4.32041e-14
3.65574e-14
2.99515e-14
2.34226e-14
1.70497e-14
1.09899e-14
5.63514e-15
0.112295
0.112295
0.112295
0.112295
0.112295
0.112295
0.112295
0.112295
0.112295
0.112295
0.112295
0.112295
0.112295
0.112295
0.112295
0.112295
0.112295
0.112295
0.112295
0.112295
0.112295
0.112294
0.112292
0.112287
0.112276
0.112247
0.112171
0.111942
0.111089
0.106448
0.0776037
0.0324487
0.0204525
0.0183767
0.0169764
0.0157591
0.0147212
0.0138295
0.0130497
0.0123584
0.0117392
0.0111799
0.010671
0.0102052
0.00977652
0.0093802
0.00901232
0.00866959
0.00834923
0.00804888
0.0077665
0.00750034
0.00724885
0.00701069
0.0067847
0.00656985
0.00636523
0.00617005
0.00598356
0.00580513
0.00563415
0.00547011
0.0053125
0.00516089
0.00501487
0.00487408
0.00473819
0.00460689
0.00447992
0.00435701
0.00423794
0.00412249
0.00401046
0.00390169
0.00379599
0.00369322
0.00359323
0.00349588