/*--------------------------------*- C++ -*----------------------------------*\
  =========                 |
  \\      /  F ield         | OpenFOAM: The Open Source CFD Toolbox
   \\    /   O peration     | Website:  https://openfoam.org
    \\  /    A nd           | Version:  13
     \\/     M anipulation  |
\*---------------------------------------------------------------------------*/
FoamFile
{
    format      ascii;
    class       volScalarField;
    location    "0.0014";
    object      O2;
}
// * * * * * * * * * * * * * * * * * * * * * * * * * * * * * * * * * * * * * //

dimensions      [];

internalField   nonuniform List<scalar> 
33334
(
0.250541
0.250541
0.250541
0.250541
0.250541
0.250541
0.250541
0.250541
0.250541
0.250541
0.250541
0.250541
0.250541
0.250541
0.250541
0.250541
0.250541
0.250541
0.250541
0.250541
0.250541
0.250541
0.250541
0.250541
0.250541
0.250542
0.250543
0.250548
0.250564
0.250637
0.251079
0.255403
0.301767
0.392903
0.416631
0.419911
0.422137
0.42409
0.425758
0.427193
0.42845
0.429565
0.430565
0.43147
0.432293
0.433048
0.433743
0.434386
0.434983
0.43554
0.436062
0.436551
0.437011
0.437445
0.437856
0.438246
0.438616
0.438969
0.439305
0.439627
0.439935
0.44023
0.440513
0.440785
0.441048
0.4413
0.441544
0.44178
0.442007
0.442228
0.442441
0.442648
0.442848
0.443043
0.443232
0.443416
0.443595
0.443769
0.443938
0.444104
0.444265
0.444422
0.444575
0.444725
0.444871
0.445014
0.445153
0.44529
0.445424
0.445555
0.445683
0.445808
0.445931
0.446052
0.44617
0.446286
0.446399
0.446511
0.44662
0.446728
0.446833
0.446937
0.447039
0.447139
0.447237
0.447334
0.447429
0.447522
0.447614
0.447705
0.447794
0.447882
0.447969
0.448055
0.448138
0.448219
0.448296
0.448371
0.448447
0.448531
0.448631
0.44876
0.448929
0.449139
0.449373
0.4496
0.449783
0.449904
0.449968
0.449993
0.449999
0.45
0.45
0.45
0.45
0.45
0.45
0.45
0.45
0.45
0.45
0.45
0.45
0.45
0.45
0.45
0.45
0.45
0.45
0.45
0.45
0.45
0.45
0.45
0.45
0.45
0.45
0.45
0.45
0.45
0.45
0.45
0.45
0.45
0.45
0.45
0.250541
0.250541
0.250541
0.250541
0.250541
0.250541
0.250541
0.250541
0.250541
0.250541
0.250541
0.250541
0.250541
0.250541
0.250541
0.250541
0.250541
0.250541
0.250541
0.250541
0.250541
0.250541
0.250541
0.250541
0.250541
0.250542
0.250543
0.250548
0.250564
0.250637
0.251081
0.255413
0.301809
0.392919
0.416631
0.419911
0.422137
0.42409
0.425758
0.427193
0.42845
0.429565
0.430565
0.43147
0.432293
0.433048
0.433743
0.434386
0.434983
0.43554
0.436061
0.436551
0.437011
0.437445
0.437856
0.438246
0.438616
0.438969
0.439305
0.439627
0.439934
0.44023
0.440513
0.440785
0.441048
0.4413
0.441544
0.44178
0.442007
0.442228
0.442441
0.442648
0.442848
0.443043
0.443232
0.443416
0.443595
0.443769
0.443938
0.444104
0.444265
0.444422
0.444575
0.444725
0.444871
0.445014
0.445153
0.44529
0.445424
0.445555
0.445683
0.445808
0.445931
0.446052
0.44617
0.446286
0.446399
0.446511
0.44662
0.446728
0.446833
0.446937
0.447039
0.447139
0.447237
0.447334
0.447429
0.447522
0.447614
0.447705
0.447794
0.447882
0.447969
0.448055
0.448138
0.448219
0.448296
0.448371
0.448447
0.448531
0.448631
0.44876
0.448929
0.449139
0.449373
0.4496
0.449783
0.449904
0.449968
0.449993
0.449999
0.45
0.45
0.45
0.45
0.45
0.45
0.45
0.45
0.45
0.45
0.45
0.45
0.45
0.45
0.45
0.45
0.45
0.45
0.45
0.45
0.45
0.45
0.45
0.45
0.45
0.45
0.45
0.45
0.45
0.45
0.45
0.45
0.45
0.45
0.45
0.250541
0.250541
0.250541
0.250541
0.250541
0.250541
0.250541
0.250541
0.250541
0.250541
0.250541
0.250541
0.250541
0.250541
0.250541
0.250541
0.250541
0.250541
0.250541
0.250541
0.250541
0.250541
0.250541
0.250541
0.250541
0.250542
0.250543
0.250548
0.250564
0.250639
0.251088
0.255461
0.302041
0.393018
0.416634
0.419911
0.422137
0.42409
0.425758
0.427193
0.42845
0.429565
0.430565
0.43147
0.432293
0.433048
0.433743
0.434386
0.434983
0.43554
0.436061
0.43655
0.437011
0.437445
0.437856
0.438246
0.438616
0.438969
0.439305
0.439627
0.439934
0.440229
0.440513
0.440785
0.441047
0.4413
0.441544
0.441779
0.442007
0.442227
0.442441
0.442648
0.442848
0.443043
0.443232
0.443416
0.443595
0.443769
0.443938
0.444103
0.444264
0.444422
0.444575
0.444725
0.444871
0.445014
0.445153
0.44529
0.445424
0.445554
0.445683
0.445808
0.445931
0.446051
0.44617
0.446286
0.446399
0.446511
0.44662
0.446728
0.446833
0.446937
0.447039
0.447139
0.447237
0.447334
0.447429
0.447522
0.447614
0.447705
0.447794
0.447882
0.447969
0.448055
0.448138
0.448218
0.448296
0.448371
0.448447
0.44853
0.448631
0.44876
0.448929
0.449138
0.449373
0.449599
0.449783
0.449904
0.449968
0.449993
0.449999
0.45
0.45
0.45
0.45
0.45
0.45
0.45
0.45
0.45
0.45
0.45
0.45
0.45
0.45
0.45
0.45
0.45
0.45
0.45
0.45
0.45
0.45
0.45
0.45
0.45
0.45
0.45
0.45
0.45
0.45
0.45
0.45
0.45
0.45
0.45
0.250541
0.250541
0.250541
0.250541
0.250541
0.250541
0.250541
0.250541
0.250541
0.250541
0.250541
0.250541
0.250541
0.250541
0.250541
0.250541
0.250541
0.250541
0.250541
0.250541
0.250541
0.250541
0.250541
0.250541
0.250541
0.250542
0.250543
0.250548
0.250565
0.250643
0.251106
0.255589
0.302739
0.39333
0.416647
0.419911
0.422137
0.424091
0.425758
0.427193
0.42845
0.429565
0.430565
0.43147
0.432293
0.433048
0.433743
0.434386
0.434983
0.43554
0.436061
0.43655
0.437011
0.437445
0.437856
0.438246
0.438616
0.438969
0.439305
0.439627
0.439934
0.440229
0.440513
0.440785
0.441047
0.4413
0.441544
0.441779
0.442007
0.442227
0.442441
0.442647
0.442848
0.443043
0.443232
0.443416
0.443595
0.443769
0.443938
0.444103
0.444264
0.444421
0.444575
0.444724
0.444871
0.445014
0.445153
0.44529
0.445423
0.445554
0.445682
0.445808
0.445931
0.446051
0.44617
0.446285
0.446399
0.446511
0.44662
0.446728
0.446833
0.446937
0.447039
0.447139
0.447237
0.447334
0.447429
0.447522
0.447614
0.447705
0.447794
0.447882
0.447969
0.448055
0.448138
0.448218
0.448296
0.448371
0.448447
0.44853
0.448631
0.44876
0.448928
0.449138
0.449373
0.449599
0.449782
0.449904
0.449968
0.449993
0.449999
0.45
0.45
0.45
0.45
0.45
0.45
0.45
0.45
0.45
0.45
0.45
0.45
0.45
0.45
0.45
0.45
0.45
0.45
0.45
0.45
0.45
0.45
0.45
0.45
0.45
0.45
0.45
0.45
0.45
0.45
0.45
0.45
0.45
0.45
0.45
0.250541
0.250541
0.250541
0.250541
0.250541
0.250541
0.250541
0.250541
0.250541
0.250541
0.250541
0.250541
0.250541
0.250541
0.250541
0.250541
0.250541
0.250541
0.250541
0.250541
0.250541
0.250541
0.250541
0.250541
0.250541
0.250542
0.250544
0.250549
0.250567
0.25065
0.251143
0.255858
0.304287
0.39403
0.41668
0.419913
0.42214
0.424093
0.42576
0.427194
0.42845
0.429566
0.430566
0.43147
0.432293
0.433048
0.433743
0.434386
0.434983
0.43554
0.436061
0.43655
0.437011
0.437445
0.437856
0.438246
0.438616
0.438969
0.439305
0.439627
0.439934
0.440229
0.440513
0.440785
0.441047
0.4413
0.441544
0.441779
0.442007
0.442227
0.442441
0.442647
0.442848
0.443043
0.443232
0.443416
0.443595
0.443769
0.443938
0.444103
0.444264
0.444421
0.444575
0.444724
0.444871
0.445014
0.445153
0.44529
0.445423
0.445554
0.445682
0.445808
0.445931
0.446051
0.44617
0.446285
0.446399
0.446511
0.44662
0.446728
0.446833
0.446937
0.447038
0.447139
0.447237
0.447334
0.447429
0.447522
0.447614
0.447705
0.447794
0.447882
0.447969
0.448055
0.448138
0.448218
0.448296
0.448371
0.448447
0.44853
0.448631
0.44876
0.448928
0.449138
0.449372
0.449599
0.449782
0.449904
0.449968
0.449993
0.449999
0.45
0.45
0.45
0.45
0.45
0.45
0.45
0.45
0.45
0.45
0.45
0.45
0.45
0.45
0.45
0.45
0.45
0.45
0.45
0.45
0.45
0.45
0.45
0.45
0.45
0.45
0.45
0.45
0.45
0.45
0.45
0.45
0.45
0.45
0.45
0.250541
0.250541
0.250541
0.250541
0.250541
0.250541
0.250541
0.250541
0.250541
0.250541
0.250541
0.250541
0.250541
0.250541
0.250541
0.250541
0.250541
0.250541
0.250541
0.250541
0.250541
0.250541
0.250541
0.250541
0.250541
0.250542
0.250544
0.25055
0.250571
0.250663
0.251207
0.256343
0.307131
0.395292
0.416744
0.419921
0.422147
0.424099
0.425764
0.427197
0.428453
0.429567
0.430567
0.431471
0.432294
0.433048
0.433743
0.434386
0.434983
0.43554
0.436062
0.436551
0.437011
0.437445
0.437856
0.438246
0.438616
0.438969
0.439305
0.439627
0.439934
0.440229
0.440513
0.440785
0.441047
0.4413
0.441544
0.441779
0.442007
0.442227
0.442441
0.442647
0.442848
0.443043
0.443232
0.443416
0.443595
0.443769
0.443938
0.444103
0.444264
0.444421
0.444575
0.444724
0.444871
0.445014
0.445153
0.44529
0.445423
0.445554
0.445682
0.445808
0.445931
0.446051
0.44617
0.446285
0.446399
0.446511
0.44662
0.446728
0.446833
0.446937
0.447038
0.447139
0.447237
0.447334
0.447429
0.447522
0.447614
0.447705
0.447794
0.447882
0.447969
0.448055
0.448138
0.448218
0.448296
0.448371
0.448447
0.44853
0.448631
0.44876
0.448928
0.449138
0.449372
0.449599
0.449782
0.449904
0.449968
0.449993
0.449999
0.45
0.45
0.45
0.45
0.45
0.45
0.45
0.45
0.45
0.45
0.45
0.45
0.45
0.45
0.45
0.45
0.45
0.45
0.45
0.45
0.45
0.45
0.45
0.45
0.45
0.45
0.45
0.45
0.45
0.45
0.45
0.45
0.45
0.45
0.45
0.250541
0.250541
0.250541
0.250541
0.250541
0.250541
0.250541
0.250541
0.250541
0.250541
0.250541
0.250541
0.250541
0.250541
0.250541
0.250541
0.250541
0.250541
0.250541
0.250541
0.250541
0.250541
0.250541
0.250541
0.250541
0.250542
0.250544
0.250551
0.250576
0.250685
0.251312
0.257153
0.311724
0.397225
0.416849
0.419941
0.422165
0.424113
0.425774
0.427205
0.428459
0.429572
0.43057
0.431474
0.432296
0.43305
0.433745
0.434387
0.434984
0.435541
0.436062
0.436551
0.437011
0.437446
0.437856
0.438246
0.438616
0.438969
0.439305
0.439627
0.439934
0.44023
0.440513
0.440785
0.441047
0.4413
0.441544
0.441779
0.442007
0.442227
0.442441
0.442647
0.442848
0.443043
0.443232
0.443416
0.443595
0.443769
0.443938
0.444103
0.444264
0.444421
0.444575
0.444724
0.444871
0.445014
0.445153
0.44529
0.445423
0.445554
0.445682
0.445808
0.445931
0.446051
0.44617
0.446285
0.446399
0.446511
0.44662
0.446728
0.446833
0.446937
0.447038
0.447139
0.447237
0.447334
0.447429
0.447522
0.447614
0.447705
0.447794
0.447882
0.447969
0.448055
0.448138
0.448218
0.448296
0.448371
0.448447
0.44853
0.448631
0.44876
0.448928
0.449138
0.449372
0.449599
0.449782
0.449904
0.449968
0.449993
0.449999
0.45
0.45
0.45
0.45
0.45
0.45
0.45
0.45
0.45
0.45
0.45
0.45
0.45
0.45
0.45
0.45
0.45
0.45
0.45
0.45
0.45
0.45
0.45
0.45
0.45
0.45
0.45
0.45
0.45
0.45
0.45
0.45
0.45
0.45
0.45
0.250541
0.250541
0.250541
0.250541
0.250541
0.250541
0.250541
0.250541
0.250541
0.250541
0.250541
0.250541
0.250541
0.250541
0.250541
0.250541
0.250541
0.250541
0.250541
0.250541
0.250541
0.250541
0.250541
0.250541
0.250542
0.250543
0.250545
0.250554
0.250585
0.250718
0.251477
0.25848
0.318414
0.399795
0.416998
0.419979
0.422198
0.424139
0.425794
0.42722
0.42847
0.429581
0.430578
0.431479
0.432301
0.433054
0.433748
0.43439
0.434987
0.435543
0.436064
0.436552
0.437012
0.437446
0.437857
0.438247
0.438617
0.438969
0.439306
0.439627
0.439935
0.44023
0.440513
0.440785
0.441048
0.4413
0.441544
0.44178
0.442007
0.442227
0.442441
0.442648
0.442848
0.443043
0.443232
0.443416
0.443595
0.443769
0.443938
0.444103
0.444264
0.444421
0.444575
0.444724
0.444871
0.445014
0.445153
0.44529
0.445423
0.445554
0.445682
0.445808
0.445931
0.446051
0.44617
0.446285
0.446399
0.446511
0.44662
0.446728
0.446833
0.446937
0.447038
0.447139
0.447237
0.447334
0.447429
0.447522
0.447614
0.447705
0.447794
0.447882
0.447969
0.448055
0.448138
0.448218
0.448296
0.448371
0.448447
0.44853
0.448631
0.44876
0.448928
0.449138
0.449372
0.449599
0.449782
0.449904
0.449968
0.449993
0.449999
0.45
0.45
0.45
0.45
0.45
0.45
0.45
0.45
0.45
0.45
0.45
0.45
0.45
0.45
0.45
0.45
0.45
0.45
0.45
0.45
0.45
0.45
0.45
0.45
0.45
0.45
0.45
0.45
0.45
0.45
0.45
0.45
0.45
0.45
0.45
0.250541
0.250541
0.250541
0.250541
0.250541
0.250541
0.250541
0.250541
0.250541
0.250541
0.250541
0.250541
0.250541
0.250541
0.250541
0.250541
0.250541
0.250541
0.250541
0.250541
0.250541
0.250541
0.250541
0.250541
0.250542
0.250543
0.250547
0.250558
0.250598
0.250771
0.251737
0.260604
0.327764
0.402873
0.417186
0.420041
0.422253
0.424183
0.425826
0.427245
0.42849
0.429596
0.43059
0.431489
0.432309
0.433061
0.433753
0.434395
0.434991
0.435546
0.436067
0.436555
0.437015
0.437448
0.437859
0.438248
0.438618
0.438971
0.439307
0.439628
0.439936
0.440231
0.440514
0.440786
0.441048
0.441301
0.441545
0.44178
0.442008
0.442228
0.442441
0.442648
0.442848
0.443043
0.443232
0.443416
0.443595
0.443769
0.443938
0.444103
0.444264
0.444422
0.444575
0.444725
0.444871
0.445014
0.445153
0.44529
0.445424
0.445554
0.445682
0.445808
0.445931
0.446051
0.44617
0.446285
0.446399
0.446511
0.44662
0.446728
0.446833
0.446937
0.447038
0.447139
0.447237
0.447334
0.447429
0.447522
0.447614
0.447705
0.447794
0.447882
0.447969
0.448055
0.448138
0.448218
0.448296
0.448371
0.448447
0.44853
0.448631
0.44876
0.448928
0.449138
0.449372
0.449599
0.449782
0.449904
0.449968
0.449993
0.449999
0.45
0.45
0.45
0.45
0.45
0.45
0.45
0.45
0.45
0.45
0.45
0.45
0.45
0.45
0.45
0.45
0.45
0.45
0.45
0.45
0.45
0.45
0.45
0.45
0.45
0.45
0.45
0.45
0.45
0.45
0.45
0.45
0.45
0.45
0.45
0.250541
0.250541
0.250541
0.250541
0.250541
0.250541
0.250541
0.250541
0.250541
0.250541
0.250541
0.250541
0.250541
0.250541
0.250541
0.250541
0.250541
0.250541
0.250541
0.250541
0.250541
0.250541
0.250541
0.250541
0.250542
0.250544
0.250549
0.250565
0.25062
0.250852
0.25216
0.263948
0.339724
0.406191
0.417404
0.420134
0.422335
0.424246
0.425875
0.427282
0.42852
0.429621
0.43061
0.431506
0.432323
0.433072
0.433763
0.434402
0.434997
0.435552
0.436072
0.436559
0.437018
0.437452
0.437862
0.438251
0.438621
0.438973
0.439309
0.43963
0.439937
0.440232
0.440515
0.440787
0.441049
0.441302
0.441546
0.441781
0.442008
0.442229
0.442442
0.442648
0.442849
0.443044
0.443233
0.443416
0.443595
0.443769
0.443939
0.444104
0.444265
0.444422
0.444575
0.444725
0.444871
0.445014
0.445153
0.44529
0.445424
0.445554
0.445683
0.445808
0.445931
0.446051
0.44617
0.446285
0.446399
0.446511
0.44662
0.446728
0.446833
0.446937
0.447038
0.447139
0.447237
0.447334
0.447429
0.447522
0.447614
0.447705
0.447794
0.447882
0.447969
0.448055
0.448138
0.448218
0.448296
0.448371
0.448447
0.44853
0.448631
0.44876
0.448928
0.449138
0.449372
0.449599
0.449782
0.449904
0.449968
0.449993
0.449999
0.45
0.45
0.45
0.45
0.45
0.45
0.45
0.45
0.45
0.45
0.45
0.45
0.45
0.45
0.45
0.45
0.45
0.45
0.45
0.45
0.45
0.45
0.45
0.45
0.45
0.45
0.45
0.45
0.45
0.45
0.45
0.45
0.45
0.45
0.45
0.250541
0.250541
0.250541
0.250541
0.250541
0.250541
0.250541
0.250541
0.250541
0.250541
0.250541
0.250541
0.250541
0.250541
0.250541
0.250541
0.250541
0.250541
0.250541
0.250541
0.250541
0.250541
0.250541
0.250542
0.250543
0.250545
0.250553
0.250576
0.250654
0.250982
0.252841
0.269454
0.353537
0.409328
0.41765
0.420265
0.422448
0.424334
0.425943
0.427336
0.428562
0.429655
0.430638
0.431529
0.432342
0.433088
0.433777
0.434414
0.435007
0.435561
0.436079
0.436566
0.437024
0.437457
0.437867
0.438255
0.438625
0.438976
0.439312
0.439633
0.43994
0.440235
0.440518
0.44079
0.441051
0.441304
0.441547
0.441782
0.44201
0.44223
0.442443
0.44265
0.44285
0.443045
0.443234
0.443417
0.443596
0.44377
0.443939
0.444104
0.444265
0.444422
0.444576
0.444725
0.444871
0.445014
0.445154
0.44529
0.445424
0.445555
0.445683
0.445808
0.445931
0.446052
0.44617
0.446286
0.446399
0.446511
0.44662
0.446728
0.446833
0.446937
0.447039
0.447139
0.447237
0.447334
0.447429
0.447522
0.447614
0.447705
0.447794
0.447882
0.447969
0.448055
0.448138
0.448218
0.448296
0.448371
0.448447
0.44853
0.448631
0.44876
0.448928
0.449138
0.449372
0.449599
0.449782
0.449904
0.449968
0.449993
0.449999
0.45
0.45
0.45
0.45
0.45
0.45
0.45
0.45
0.45
0.45
0.45
0.45
0.45
0.45
0.45
0.45
0.45
0.45
0.45
0.45
0.45
0.45
0.45
0.45
0.45
0.45
0.45
0.45
0.45
0.45
0.45
0.45
0.45
0.45
0.45
0.250541
0.250541
0.250541
0.250541
0.250541
0.250541
0.250541
0.250541
0.250541
0.250541
0.250541
0.250541
0.250541
0.250541
0.250541
0.250541
0.250541
0.250541
0.250541
0.250541
0.250541
0.250541
0.250541
0.250542
0.250544
0.250548
0.250559
0.250593
0.250709
0.251193
0.254021
0.278455
0.368393
0.411966
0.41792
0.420438
0.422595
0.424449
0.426031
0.427406
0.428619
0.429702
0.430677
0.431561
0.432369
0.433111
0.433796
0.434431
0.435022
0.435573
0.43609
0.436575
0.437033
0.437465
0.437873
0.438261
0.43863
0.438982
0.439317
0.439637
0.439944
0.440238
0.440521
0.440793
0.441054
0.441307
0.44155
0.441785
0.442012
0.442232
0.442445
0.442651
0.442852
0.443046
0.443235
0.443419
0.443597
0.443771
0.44394
0.444105
0.444266
0.444423
0.444576
0.444726
0.444872
0.445015
0.445154
0.445291
0.445425
0.445555
0.445683
0.445809
0.445932
0.446052
0.44617
0.446286
0.4464
0.446511
0.446621
0.446728
0.446833
0.446937
0.447039
0.447139
0.447237
0.447334
0.447429
0.447522
0.447614
0.447705
0.447794
0.447882
0.447969
0.448055
0.448138
0.448218
0.448296
0.448371
0.448447
0.44853
0.448631
0.44876
0.448928
0.449138
0.449372
0.449599
0.449782
0.449904
0.449968
0.449993
0.449999
0.45
0.45
0.45
0.45
0.45
0.45
0.45
0.45
0.45
0.45
0.45
0.45
0.45
0.45
0.45
0.45
0.45
0.45
0.45
0.45
0.45
0.45
0.45
0.45
0.45
0.45
0.45
0.45
0.45
0.45
0.45
0.45
0.45
0.45
0.45
0.250541
0.250541
0.250541
0.250541
0.250541
0.250541
0.250541
0.250541
0.250541
0.250541
0.250541
0.250541
0.250541
0.250541
0.250541
0.250541
0.250541
0.250541
0.250541
0.250541
0.250541
0.250541
0.250542
0.250543
0.250545
0.250552
0.250569
0.250622
0.2508
0.251546
0.256113
0.292939
0.382891
0.4139
0.418218
0.420658
0.422778
0.424591
0.426143
0.427496
0.428692
0.429762
0.430726
0.431602
0.432404
0.433141
0.433821
0.434453
0.43504
0.43559
0.436104
0.436588
0.437044
0.437475
0.437883
0.43827
0.438638
0.438989
0.439324
0.439644
0.43995
0.440244
0.440526
0.440798
0.441059
0.441311
0.441554
0.441789
0.442016
0.442235
0.442448
0.442654
0.442854
0.443049
0.443237
0.443421
0.443599
0.443773
0.443942
0.444107
0.444268
0.444425
0.444578
0.444727
0.444873
0.445016
0.445156
0.445292
0.445426
0.445556
0.445684
0.44581
0.445932
0.446053
0.446171
0.446287
0.4464
0.446512
0.446621
0.446728
0.446834
0.446937
0.447039
0.447139
0.447238
0.447334
0.447429
0.447523
0.447614
0.447705
0.447794
0.447882
0.447969
0.448055
0.448138
0.448219
0.448296
0.448371
0.448447
0.44853
0.448631
0.44876
0.448928
0.449138
0.449372
0.449599
0.449782
0.449904
0.449968
0.449993
0.449999
0.45
0.45
0.45
0.45
0.45
0.45
0.45
0.45
0.45
0.45
0.45
0.45
0.45
0.45
0.45
0.45
0.45
0.45
0.45
0.45
0.45
0.45
0.45
0.45
0.45
0.45
0.45
0.45
0.45
0.45
0.45
0.45
0.45
0.45
0.45
0.250541
0.250541
0.250541
0.250541
0.250541
0.250541
0.250541
0.250541
0.250541
0.250541
0.250541
0.250541
0.250541
0.250541
0.250541
0.250541
0.250541
0.250541
0.250541
0.250541
0.250541
0.250542
0.250542
0.250544
0.250548
0.250558
0.250587
0.25067
0.250954
0.252163
0.260074
0.315035
0.395699
0.41517
0.418552
0.420927
0.422998
0.424762
0.426278
0.427605
0.428781
0.429835
0.430787
0.431654
0.432448
0.433178
0.433853
0.43448
0.435064
0.435611
0.436123
0.436605
0.437059
0.437488
0.437895
0.438281
0.438648
0.438998
0.439332
0.439652
0.439958
0.440251
0.440533
0.440804
0.441065
0.441316
0.441559
0.441793
0.44202
0.44224
0.442452
0.442658
0.442858
0.443052
0.443241
0.443424
0.443602
0.443776
0.443945
0.44411
0.44427
0.444427
0.44458
0.444729
0.444875
0.445018
0.445157
0.445294
0.445427
0.445558
0.445686
0.445811
0.445934
0.446054
0.446172
0.446288
0.446401
0.446513
0.446622
0.446729
0.446835
0.446938
0.44704
0.44714
0.447238
0.447335
0.44743
0.447523
0.447615
0.447705
0.447795
0.447883
0.44797
0.448055
0.448139
0.448219
0.448296
0.448371
0.448447
0.448531
0.448631
0.44876
0.448929
0.449138
0.449373
0.449599
0.449782
0.449904
0.449968
0.449993
0.449999
0.45
0.45
0.45
0.45
0.45
0.45
0.45
0.45
0.45
0.45
0.45
0.45
0.45
0.45
0.45
0.45
0.45
0.45
0.45
0.45
0.45
0.45
0.45
0.45
0.45
0.45
0.45
0.45
0.45
0.45
0.45
0.45
0.45
0.45
0.45
0.250541
0.250541
0.250541
0.250541
0.250541
0.250541
0.250541
0.250541
0.250541
0.250541
0.250541
0.250541
0.250541
0.250541
0.250541
0.250541
0.250541
0.250541
0.250541
0.250541
0.250541
0.250542
0.250543
0.250546
0.250552
0.25057
0.250616
0.250753
0.251224
0.25332
0.267824
0.343021
0.405168
0.416039
0.418929
0.421245
0.423252
0.42496
0.426436
0.427733
0.428887
0.429923
0.430861
0.431716
0.4325
0.433223
0.433892
0.434514
0.435094
0.435637
0.436146
0.436625
0.437077
0.437505
0.43791
0.438295
0.438661
0.43901
0.439343
0.439662
0.439967
0.44026
0.440541
0.440812
0.441072
0.441323
0.441566
0.4418
0.442026
0.442245
0.442458
0.442663
0.442863
0.443057
0.443245
0.443428
0.443606
0.44378
0.443949
0.444113
0.444274
0.44443
0.444583
0.444732
0.444878
0.445021
0.44516
0.445296
0.445429
0.44556
0.445688
0.445813
0.445936
0.446056
0.446174
0.446289
0.446403
0.446514
0.446623
0.446731
0.446836
0.44694
0.447041
0.447141
0.447239
0.447336
0.447431
0.447524
0.447616
0.447706
0.447796
0.447884
0.447971
0.448056
0.448139
0.44822
0.448297
0.448372
0.448448
0.448531
0.448631
0.44876
0.448929
0.449138
0.449373
0.449599
0.449782
0.449904
0.449968
0.449993
0.449999
0.45
0.45
0.45
0.45
0.45
0.45
0.45
0.45
0.45
0.45
0.45
0.45
0.45
0.45
0.45
0.45
0.45
0.45
0.45
0.45
0.45
0.45
0.45
0.45
0.45
0.45
0.45
0.45
0.45
0.45
0.45
0.45
0.45
0.45
0.45
0.250541
0.250541
0.250541
0.250541
0.250541
0.250541
0.250541
0.250541
0.250541
0.250541
0.250541
0.250541
0.250541
0.250541
0.250541
0.250541
0.250541
0.250541
0.250541
0.250541
0.250542
0.250543
0.250545
0.250549
0.250561
0.25059
0.250668
0.250898
0.251717
0.255686
0.283502
0.370503
0.410852
0.416726
0.419359
0.421608
0.423537
0.425185
0.426618
0.427882
0.42901
0.430025
0.430947
0.431789
0.432563
0.433277
0.433939
0.434554
0.435129
0.435667
0.436173
0.436649
0.437099
0.437524
0.437928
0.438311
0.438676
0.439024
0.439356
0.439674
0.439979
0.440271
0.440552
0.440822
0.441082
0.441332
0.441574
0.441808
0.442034
0.442252
0.442464
0.44267
0.442869
0.443063
0.443251
0.443434
0.443611
0.443785
0.443953
0.444118
0.444278
0.444434
0.444587
0.444736
0.444882
0.445024
0.445163
0.445299
0.445432
0.445563
0.445691
0.445816
0.445938
0.446058
0.446176
0.446292
0.446405
0.446516
0.446625
0.446733
0.446838
0.446941
0.447043
0.447143
0.447241
0.447337
0.447432
0.447525
0.447617
0.447708
0.447797
0.447885
0.447972
0.448057
0.44814
0.448221
0.448298
0.448373
0.448449
0.448532
0.448632
0.448761
0.44893
0.449139
0.449373
0.449599
0.449783
0.449904
0.449968
0.449993
0.449999
0.45
0.45
0.45
0.45
0.45
0.45
0.45
0.45
0.45
0.45
0.45
0.45
0.45
0.45
0.45
0.45
0.45
0.45
0.45
0.45
0.45
0.45
0.45
0.45
0.45
0.45
0.45
0.45
0.45
0.45
0.45
0.45
0.45
0.45
0.45
0.250541
0.250541
0.250541
0.250541
0.250541
0.250541
0.250541
0.250541
0.250541
0.250541
0.250541
0.250541
0.250541
0.250541
0.250541
0.250541
0.250541
0.250541
0.250541
0.250542
0.250542
0.250544
0.250547
0.250556
0.250576
0.250627
0.250761
0.251168
0.252683
0.260927
0.31216
0.392365
0.413672
0.417359
0.419846
0.422009
0.423852
0.425436
0.426821
0.428049
0.429149
0.430142
0.431046
0.431874
0.432635
0.433339
0.433992
0.434601
0.43517
0.435704
0.436205
0.436678
0.437125
0.437548
0.437949
0.438331
0.438694
0.439041
0.439372
0.439689
0.439993
0.440284
0.440564
0.440833
0.441093
0.441343
0.441584
0.441817
0.442043
0.442261
0.442473
0.442678
0.442877
0.44307
0.443258
0.44344
0.443618
0.443791
0.443959
0.444123
0.444283
0.444439
0.444592
0.444741
0.444886
0.445028
0.445167
0.445303
0.445436
0.445567
0.445694
0.445819
0.445941
0.446062
0.446179
0.446295
0.446408
0.446519
0.446628
0.446735
0.44684
0.446944
0.447045
0.447145
0.447243
0.447339
0.447434
0.447527
0.447619
0.447709
0.447798
0.447886
0.447973
0.448058
0.448142
0.448222
0.448299
0.448374
0.44845
0.448533
0.448633
0.448762
0.44893
0.44914
0.449374
0.4496
0.449783
0.449904
0.449968
0.449993
0.449999
0.45
0.45
0.45
0.45
0.45
0.45
0.45
0.45
0.45
0.45
0.45
0.45
0.45
0.45
0.45
0.45
0.45
0.45
0.45
0.45
0.45
0.45
0.45
0.45
0.45
0.45
0.45
0.45
0.45
0.45
0.45
0.45
0.45
0.45
0.45
0.250541
0.250541
0.250541
0.250541
0.250541
0.250541
0.250541
0.250541
0.250541
0.250541
0.250541
0.250541
0.250541
0.250541
0.250541
0.250541
0.250541
0.250541
0.250542
0.250542
0.250543
0.250546
0.250553
0.250568
0.250604
0.250693
0.250934
0.251694
0.254775
0.273338
0.350842
0.405796
0.415091
0.418007
0.420386
0.422441
0.424193
0.42571
0.427045
0.428235
0.429304
0.430273
0.431157
0.431968
0.432717
0.433409
0.434054
0.434655
0.435217
0.435745
0.436242
0.436711
0.437154
0.437574
0.437973
0.438353
0.438715
0.43906
0.43939
0.439706
0.440009
0.440299
0.440578
0.440847
0.441105
0.441355
0.441596
0.441828
0.442053
0.442271
0.442482
0.442687
0.442885
0.443078
0.443266
0.443448
0.443625
0.443798
0.443966
0.44413
0.44429
0.444446
0.444598
0.444746
0.444892
0.445034
0.445172
0.445308
0.445441
0.445571
0.445699
0.445823
0.445946
0.446066
0.446183
0.446298
0.446412
0.446523
0.446631
0.446738
0.446844
0.446947
0.447048
0.447148
0.447246
0.447342
0.447437
0.44753
0.447621
0.447712
0.447801
0.447888
0.447975
0.44806
0.448143
0.448224
0.448301
0.448375
0.448451
0.448534
0.448634
0.448763
0.448932
0.449141
0.449375
0.4496
0.449783
0.449904
0.449968
0.449993
0.449999
0.45
0.45
0.45
0.45
0.45
0.45
0.45
0.45
0.45
0.45
0.45
0.45
0.45
0.45
0.45
0.45
0.45
0.45
0.45
0.45
0.45
0.45
0.45
0.45
0.45
0.45
0.45
0.45
0.45
0.45
0.45
0.45
0.45
0.45
0.45
0.250541
0.250541
0.250541
0.250541
0.250541
0.250541
0.250541
0.250541
0.250541
0.250541
0.250541
0.250541
0.250541
0.250541
0.250541
0.250541
0.250541
0.250542
0.250542
0.250543
0.250546
0.250551
0.250563
0.250591
0.250657
0.250821
0.251275
0.252798
0.259909
0.301717
0.384222
0.4117
0.416089
0.418702
0.420964
0.422898
0.424557
0.426006
0.427289
0.428437
0.429474
0.430417
0.43128
0.432074
0.432808
0.433488
0.434122
0.434715
0.43527
0.435792
0.436284
0.436748
0.437188
0.437605
0.438001
0.438378
0.438738
0.439082
0.43941
0.439725
0.440027
0.440316
0.440594
0.440862
0.44112
0.441369
0.441609
0.441841
0.442066
0.442283
0.442493
0.442698
0.442896
0.443088
0.443275
0.443457
0.443634
0.443806
0.443974
0.444138
0.444297
0.444453
0.444605
0.444753
0.444898
0.44504
0.445178
0.445314
0.445447
0.445577
0.445704
0.445828
0.445951
0.44607
0.446188
0.446303
0.446416
0.446527
0.446636
0.446742
0.446847
0.44695
0.447052
0.447151
0.447249
0.447345
0.44744
0.447533
0.447624
0.447715
0.447803
0.447891
0.447978
0.448063
0.448146
0.448226
0.448303
0.448377
0.448453
0.448536
0.448636
0.448765
0.448933
0.449142
0.449376
0.449601
0.449784
0.449905
0.449968
0.449993
0.449999
0.45
0.45
0.45
0.45
0.45
0.45
0.45
0.45
0.45
0.45
0.45
0.45
0.45
0.45
0.45
0.45
0.45
0.45
0.45
0.45
0.45
0.45
0.45
0.45
0.45
0.45
0.45
0.45
0.45
0.45
0.45
0.45
0.45
0.45
0.45
0.250541
0.250541
0.250541
0.250541
0.250541
0.250541
0.250541
0.250541
0.250541
0.250541
0.250541
0.250541
0.250541
0.250541
0.250541
0.250541
0.250542
0.250542
0.250543
0.250546
0.250551
0.250561
0.250584
0.250637
0.25076
0.251074
0.251996
0.255396
0.273818
0.34733
0.403818
0.41397
0.417002
0.419449
0.421567
0.423374
0.424941
0.42632
0.42755
0.428656
0.429659
0.430574
0.431415
0.43219
0.432908
0.433576
0.434199
0.434782
0.435329
0.435844
0.43633
0.436789
0.437225
0.437638
0.438032
0.438407
0.438764
0.439106
0.439433
0.439746
0.440047
0.440335
0.440612
0.440879
0.441136
0.441384
0.441624
0.441855
0.442079
0.442296
0.442506
0.44271
0.442907
0.443099
0.443286
0.443467
0.443644
0.443816
0.443983
0.444147
0.444306
0.444461
0.444613
0.444761
0.444906
0.445047
0.445185
0.445321
0.445453
0.445583
0.44571
0.445834
0.445956
0.446076
0.446193
0.446308
0.446421
0.446532
0.44664
0.446747
0.446852
0.446955
0.447056
0.447155
0.447253
0.447349
0.447444
0.447537
0.447628
0.447718
0.447807
0.447894
0.447981
0.448066
0.448149
0.448229
0.448305
0.44838
0.448456
0.448539
0.448639
0.448767
0.448936
0.449144
0.449378
0.449603
0.449785
0.449905
0.449968
0.449993
0.449999
0.45
0.45
0.45
0.45
0.45
0.45
0.45
0.45
0.45
0.45
0.45
0.45
0.45
0.45
0.45
0.45
0.45
0.45
0.45
0.45
0.45
0.45
0.45
0.45
0.45
0.45
0.45
0.45
0.45
0.45
0.45
0.45
0.45
0.45
0.45
0.250541
0.250541
0.250541
0.250541
0.250541
0.250541
0.250541
0.250541
0.250541
0.250541
0.250541
0.250541
0.250541
0.250541
0.250541
0.250542
0.250542
0.250543
0.250546
0.250551
0.25056
0.250581
0.250627
0.250728
0.25097
0.251615
0.253651
0.262671
0.309132
0.387116
0.411167
0.415308
0.417939
0.420226
0.422182
0.423867
0.425342
0.426652
0.427827
0.428889
0.429857
0.430744
0.43156
0.432316
0.433017
0.433671
0.434282
0.434855
0.435394
0.435901
0.436381
0.436835
0.437266
0.437676
0.438066
0.438438
0.438793
0.439133
0.439458
0.439769
0.440069
0.440356
0.440632
0.440898
0.441154
0.441402
0.44164
0.441871
0.442094
0.442311
0.44252
0.442723
0.44292
0.443112
0.443298
0.443479
0.443655
0.443827
0.443994
0.444157
0.444315
0.444471
0.444622
0.44477
0.444914
0.445055
0.445193
0.445329
0.445461
0.44559
0.445717
0.445841
0.445963
0.446082
0.4462
0.446314
0.446427
0.446538
0.446646
0.446753
0.446857
0.44696
0.447061
0.44716
0.447258
0.447354
0.447448
0.447541
0.447632
0.447722
0.447811
0.447898
0.447985
0.44807
0.448152
0.448232
0.448309
0.448383
0.448459
0.448542
0.448641
0.44877
0.448938
0.449147
0.44938
0.449604
0.449786
0.449906
0.449968
0.449993
0.449999
0.45
0.45
0.45
0.45
0.45
0.45
0.45
0.45
0.45
0.45
0.45
0.45
0.45
0.45
0.45
0.45
0.45
0.45
0.45
0.45
0.45
0.45
0.45
0.45
0.45
0.45
0.45
0.45
0.45
0.45
0.45
0.45
0.45
0.45
0.45
0.250541
0.250541
0.250541
0.250541
0.250541
0.250541
0.250541
0.250541
0.250541
0.250541
0.250541
0.250541
0.250541
0.250542
0.250542
0.250543
0.250544
0.250546
0.250551
0.250561
0.250581
0.250623
0.250714
0.250919
0.251427
0.252877
0.258215
0.285274
0.362455
0.406406
0.413616
0.416488
0.418913
0.421008
0.422805
0.424372
0.425758
0.426998
0.428118
0.429136
0.430068
0.430925
0.431716
0.432451
0.433135
0.433774
0.434372
0.434935
0.435464
0.435964
0.436437
0.436885
0.437311
0.437717
0.438103
0.438472
0.438824
0.439162
0.439485
0.439795
0.440093
0.440379
0.440654
0.440919
0.441174
0.44142
0.441658
0.441888
0.442111
0.442326
0.442535
0.442738
0.442934
0.443125
0.443311
0.443492
0.443667
0.443838
0.444005
0.444168
0.444326
0.444481
0.444632
0.444779
0.444924
0.445065
0.445202
0.445337
0.445469
0.445598
0.445725
0.445849
0.445971
0.44609
0.446207
0.446321
0.446434
0.446544
0.446652
0.446759
0.446863
0.446966
0.447067
0.447166
0.447263
0.447359
0.447453
0.447546
0.447637
0.447727
0.447815
0.447903
0.447989
0.448074
0.448156
0.448236
0.448312
0.448387
0.448462
0.448545
0.448645
0.448774
0.448942
0.44915
0.449383
0.449606
0.449787
0.449906