/*--------------------------------*- C++ -*----------------------------------*\
  =========                 |
  \\      /  F ield         | OpenFOAM: The Open Source CFD Toolbox
   \\    /   O peration     | Website:  https://openfoam.org
    \\  /    A nd           | Version:  13
     \\/     M anipulation  |
\*---------------------------------------------------------------------------*/
FoamFile
{
    format      ascii;
    class       volScalarField;
    location    "0.0014";
    object      p;
}
// * * * * * * * * * * * * * * * * * * * * * * * * * * * * * * * * * * * * * //

dimensions      [1 -1 -2 0 0 0 0];

internalField   nonuniform List<scalar> 
33334
(
1.03731e+06
1.03335e+06
1.02737e+06
1.01888e+06
1.00863e+06
996994
984307
971166
957558
943708
929870
916178
902731
889626
876969
864856
853378
842648
832847
824210
816959
811283
807507
806160
807978
813120
822864
839233
865831
907999
974895
1.07804e+06
1.01218e+06
639617
404989
347405
333737
323163
313483
304793
297036
290015
283591
277666
272231
267241
262679
258563
254934
251781
249113
246888
245056
243545
242276
241181
240281
239546
238864
238196
237535
236882
236244
235622
235021
234442
233884
233348
232833
232337
231859
231399
230955
230525
230109
229705
229314
228933
228564
228204
227856
227517
227189
226871
226561
226260
225965
225678
225397
225124
224857
224597
224343
224096
223854
223617
223385
223158
222935
222717
222503
222295
222090
221890
221694
221502
221314
221129
220948
220770
220595
220424
220257
220092
219930
219772
219618
219462
219296
219174
219035
218898
218764
218652
218588
218608
218727
218870
218824
218506
217773
217169
217195
216528
216298
216069
215831
215592
215365
215131
214899
214677
214459
214244
214032
213824
213620
213419
213222
213029
212838
212651
212465
212282
212101
211923
211750
211580
211415
211254
211097
210931
210710
210300
209284
206408
1.03335e+06
1.02939e+06
1.02342e+06
1.01495e+06
1.0047e+06
993072
980534
967196
953478
939689
925937
912334
898978
885968
873410
861400
850029
839415
829738
821233
814125
808600
805007
803843
805840
811187
821158
837762
864591
906980
974073
1.07739e+06
1.01171e+06
639452
404977
347405
333737
323163
313482
304793
297036
290016
283591
277666
272231
267240
262679
258563
254934
251781
249113
246888
245056
243545
242276
241181
240281
239546
238864
238196
237535
236882
236244
235622
235021
234442
233884
233348
232833
232337
231859
231399
230955
230525
230109
229705
229314
228933
228564
228204
227856
227517
227189
226871
226561
226260
225965
225678
225397
225124
224857
224597
224343
224096
223854
223617
223385
223158
222935
222717
222504
222295
222090
221890
221694
221502
221314
221129
220948
220770
220596
220425
220257
220092
219930
219772
219618
219462
219296
219173
219036
218899
218766
218653
218589
218610
218729
218871
218824
218504
217771
217167
217194
216528
216298
216069
215831
215592
215365
215131
214899
214677
214459
214244
214032
213824
213620
213419
213222
213029
212838
212651
212465
212282
212101
211923
211750
211580
211415
211254
211097
210931
210710
210300
209284
206408
1.02737e+06
1.02342e+06
1.01747e+06
1.00905e+06
998854
987296
974751
961468
947897
934213
920568
907076
893832
880937
868495
856604
845355
834866
825320
816954
809989
804604
801196
800229
802386
807933
818131
834979
862068
904722
972064
1.07562e+06
1.00983e+06
638562
404821
347385
333725
323154
313476
304788
297032
290013
283589
277664
272230
267240
262678
258562
254933
251780
249112
246888
245056
243545
242276
241181
240281
239546
238864
238196
237535
236882
236244
235622
235021
234442
233884
233348
232833
232337
231859
231399
230955
230525
230109
229705
229314
228933
228564
228204
227856
227517
227189
226871
226561
226260
225965
225678
225397
225124
224857
224597
224343
224096
223854
223617
223385
223158
222935
222717
222504
222295
222090
221890
221694
221502
221314
221129
220948
220770
220596
220425
220257
220092
219930
219772
219618
219462
219297
219173
219035
218899
218765
218652
218589
218610
218728
218870
218825
218505
217772
217168
217195
216528
216298
216069
215831
215592
215365
215131
214899
214677
214459
214244
214032
213824
213620
213419
213222
213029
212838
212651
212465
212282
212101
211923
211750
211580
211415
211254
211097
210931
210710
210300
209284
206408
1.01888e+06
1.01495e+06
1.00905e+06
1.00071e+06
990620
979172
966727
953639
940214
926669
913164
899814
886715
873966
861671
849929
838831
828493
819102
810898
804098
798868
795660
794907
797225
802985
813404
830495
857840
900770
968396
1.07224e+06
1.00522e+06
635968
404224
347264
333643
323087
313422
304745
296998
289986
283567
277647
272216
267229
262670
258556
254928
251777
249109
246885
245054
243544
242275
241180
240280
239545
238864
238196
237535
236882
236243
235622
235021
234442
233884
233348
232833
232337
231859
231399
230955
230525
230109
229705
229314
228933
228564
228205
227856
227517
227189
226871
226561
226260
225965
225678
225397
225124
224857
224597
224343
224096
223854
223617
223385
223158
222935
222717
222504
222295
222090
221890
221694
221502
221314
221129
220948
220770
220596
220425
220257
220092
219930
219772
219618
219462
219297
219173
219035
218899
218765
218653
218589
218610
218728
218870
218824
218505
217773
217168
217195
216528
216298
216068
215831
215592
215365
215131
214899
214677
214459
214244
214032
213824
213620
213419
213222
213029
212838
212651
212465
212282
212101
211923
211750
211580
211415
211254
211097
210931
210710
210300
209284
206408
1.00863e+06
1.0047e+06
998854
990620
980656
969344
957062
944154
930896
917515
904175
890992
878060
865478
853349
841772
830841
820667
811440
803402
796771
791689
788660
788111
790565
796517
807104
824384
851929
895090
963007
1.06725e+06
996346
630386
402711
346880
333364
322846
313216
304570
296850
289860
283458
277554
272138
267162
262613
258508
254888
251743
249081
246861
245034
243527
242261
241169
240271
239538
238858
238191
237531
236879
236241
235620
235020
234441
233883
233347
232832
232336
231859
231399
230954
230525
230108
229705
229313
228933
228564
228204
227856
227517
227189
226871
226561
226260
225965
225678
225397
225124
224857
224597
224343
224096
223854
223617
223385
223158
222935
222717
222504
222295
222090
221890
221694
221502
221314
221129
220948
220770
220596
220425
220257
220092
219930
219772
219618
219462
219297
219173
219036
218899
218766
218653
218589
218609
218728
218870
218824
218505
217773
217168
217195
216528
216298
216069
215831
215592
215365
215131
214899
214677
214459
214244
214032
213824
213620
213419
213222
213029
212838
212651
212465
212282
212101
211923
211750
211580
211415
211254
211097
210931
210710
210300
209284
206408
996994
993072
987296
979172
969344
958193
946092
933361
920283
907083
893927
880927
868177
855775
843825
832426
821670
811668
802608
794736
788266
783322
780447
780075
782646
788748
799444
816858
844546
887882
956159
1.06116e+06
981651
620578
399817
346069
332749
322298
312731
304143
296471
289524
283158
277287
271901
266950
262424
258339
254738
251610
248963
246756
244941
243445
242189
241105
240215
239489
238815
238154
237499
236852
236218
235601
235003
234427
233872
233338
232824
232330
231854
231394
230951
230522
230106
229703
229312
228932
228563
228204
227855
227517
227189
226870
226561
226259
225965
225678
225397
225124
224857
224597
224343
224096
223854
223617
223385
223158
222935
222717
222503
222295
222090
221890
221694
221502
221314
221129
220948
220770
220596
220425
220257
220092
219930
219772
219618
219462
219297
219173
219036
218899
218766
218653
218589
218609
218728
218870
218825
218506
217774
217168
217195
216528
216298
216069
215831
215592
215365
215131
214899
214677
214459
214244
214032
213824
213620
213419
213222
213029
212838
212651
212465
212282
212101
211923
211750
211580
211415
211254
211097
210931
210710
210300
209284
206409
984307
980534
974751
966727
957062
946092
934172
921627
908739
895734
882772
869964
857404
845190
833426
822211
811633
801805
792911
785201
778875
774055
771312
771088
773756
779946
790721
808223
836045
879633
948430
1.05416e+06
960234
605607
395190
344716
331700
321347
311870
303368
295771
288889
282575
276758
271415
266503
262013
257962
254390
251293
248670
246486
244692
243217
241980
240910
240039
239327
238667
238019
237377
236741
236117
235510
234922
234354
233807
233280
232773
232285
231814
231360
230921
230496
230084
229684
229296
228918
228551
228194
227847
227510
227183
226866
226557
226256
225963
225676
225396
225123
224856
224596
224343
224095
223853
223617
223385
223157
222935
222717
222503
222295
222090
221890
221694
221502
221314
221129
220948
220770
220596
220425
220257
220092
219930
219772
219618
219462
219297
219173
219036
218899
218766
218653
218589
218610
218728
218870
218825
218506
217774
217168
217196
216528
216298
216069
215831
215592
215365
215131
214899
214677
214459
214244
214032
213824
213620
213419
213222
213029
212838
212651
212465
212282
212101
211923
211750
211580
211415
211254
211097
210931
210710
210300
209284
206409
971166
967196
961468
953639
944154
933361
921627
909274
896586
883782
871018
858405
846037
834012
822437
811404
801004
791348
782617
775059
768859
764152
761529
761428
764167
770388
781249
798819
826790
870955
940991
1.04571e+06
932167
585310
388549
342758
330162
319936
310579
302192
294694
287898
281656
275908
270621
265761
261320
257314
253780
250726
248135
245983
244219
242773
241560
240512
239668
238976
238337
237710
237087
236470
235864
235274
234702
234149
233617
233104
232611
232135
231677
231234
230805
230391
229988
229597
229217
228848
228488
228137
227796
227465
227143
226831
226527
226230
225939
225656
225378
225108
224843
224585
224333
224087
223847
223611
223380
223154
222932
222714
222501
222293
222089
221889
221693
221501
221313
221128
220947
220770
220595
220424
220257
220092
219930
219772
219618
219462
219297
219173
219036
218899
218766
218653
218589
218610
218728
218871
218825
218506
217774
217168
217196
216528
216298
216069
215831
215592
215365
215131
214900
214677
214459
214244
214032
213824
213620
213419
213222
213029
212838
212651
212465
212282
212101
211923
211750
211580
211415
211254
211097
210931
210710
210300
209284
206409
957558
953478
947897
940214
930896
920283
908739
896586
884101
871497
858930
846507
834326
822487
811095
800241
790011
780522
771945
764530
758444
753845
751335
751335
754125
760344
771291
788964
817140
862186
934445
1.03731e+06
893846
559513
380291
340220
328118
318045
308835
300591
293219
286526
280373
274706
269489
264694
260313
256362
252875
249871
247320
245206
243480
242069
240882
239863
239053
238386
237773
237171
236572
235979
235396
234829
234278
233747
233235
232742
232267
231810
231369
230943
230532
230133
229746
229370
229004
228649
228302
227964
227636
227316
227006
226704
226410
226123
225841
225566
225297
225034
224777
224525
224280
224039
223804
223573
223347
223124
222906
222692
222482
222276
222074
221877
221683
221492
221305
221122
220942
220765
220592
220421
220254
220090
219928
219770
219617
219461
219296
219173
219035
218899
218765
218653
218589
218610
218729
218871
218825
218506
217774
217169
217196
216528
216298
216069
215831
215592
215365
215131
214900
214677
214459
214244
214032
213824
213620
213419
213222
213029
212838
212651
212465
212282
212101
211923
211750
211580
211415
211254
211097
210931
210710
210300
209284
206409
943708
939689
934213
926669
917515
907083
895734
883782
871497
859090
846710
834470
822468
810808
799592
788906
778837
769506
761074
753794
747819
743328
740931
741016
743847
750079
761101
778971
807623
854120
929145
1.03074e+06
844403
528807
370922
337159
325576
315680
306647
298576
291349
284772
278723
273150
268015
263295
258983
255096
251666
248711
246206
244141
242458
241085
239925
238942
238167
237530
236945
236372
235802
235236
234680
234138
233612
233105
232617
232147
231695
231260
230841
230437
230045
229667
229300
228943
228596
228259
227930
227610
227298
226996
226701
226415
226136
225864
225598
225337
225081
224831
224586
224347
224114
223885
223660
223440
223223
223011
222801
222596
222394
222196
222001
221810
221623
221438
221257
221079
220903
220731
220561
220394
220230
220069
219909
219754
219603
219449
219286
219165
219028
218894
218762
218650
218588
218609
218728
218871
218825
218506
217774
217169
217196
216528
216298
216069
215831
215592
215365
215131
214900
214677
214459
214244
214033
213824
213620
213419
213222
213029
212838
212651
212465
212282
212101
211923
211750
211580
211415
211254
211097
210931
210710
210300
209284
206409
929870
925937
920568
913164
904175
893927
882772
871018
858930
846710
834510
822443
810613
799124
788076
777551
767635
758454
750162
743016
737160
732783
730502
730674
733556
739848
750985
769243
798769
847505
927593
1.01846e+06
788571
494899
360603
333652
322574
312876
304049
296174
289106
282658
276725
271256
266214
261577
257341
253524
250157
247256
244804
242786
241151
239819
238689
237743
237006
236400
235846
235304
234763
234226
233698
233184
232686
232205
231743
231299
230872
230461
230066
229685
229317
228961
228616
228281
227956
227639
227331
227032
226740
226457
226182
225915
225655
225401
225153
224909
224671
224438
224210
223988
223770
223557
223348
223143
222941
222743
222547
222356
222167
221982
221800
221621
221445
221272
221101
220933
220767
220604
220444
220286
220130
219977
219825
219678
219534
219388
219232
219120
218989
218862
218737
218633
218577
218603
218725
218870
218825
218507
217774
217169
217196
216528
216298
216069
215831
215592
215365
215131
214900
214677
214459
214244
214033
213824
213620
213419
213222
213029
212838
212651
212465
212282
212101
211923
211750
211580
211415
211254
211097
210931
210710
210300
209284
206409
916178
912334
907076
899814
890992
880927
869964
858405
846507
834470
822443
810545
798882
787561
776678
766313
756550
747520
739372
732364
726641
722385
720226
720516
723508
729958
741349
760358
791447
843524
929494
997641
725802
458484
350776
329782
319159
309678
301084
293423
286524
280218
274413
269057
264115
259568
255414
251671
248369
245528
243130
241159
239574
238285
237186
236281
235579
235006
234484
233972
233461
232954
232456
231969
231499
231046
230610
230192
229791
229405
229035
228678
228334
228001
227680
227368
227065
226771
226486
226208
225938
225676
225422
225176
224937
224703
224474
224251
224032
223819
223610
223407
223207
223013
222822
222635
222451
222269
222091
221916
221744
221576
221409
221246
221086
220928
220772
220618
220467
220318
220172
220028
219887
219748
219610
219478
219349
219219
219079
218987
218870
218761
218655
218569
218531
218574
218709
218863
218823
218506
217774
217169
217196
216528
216298
216069
215831
215592
215365
215131
214900
214677
214459
214244
214033
213824
213620
213419
213222
213029
212838
212651
212465
212282
212101
211923
211750
211581
211415
211254
211097
210931
210710
210300
209284
206409
902731
898978
893832
886715
878060
868177
857404
846037
834326
822468
810613
798882
787387
776237
765523
755324
745722
736850
728861
722002
716431
712317
710291
710732
713903
720628
732508
752696
786209
842592
936922
957310
660437
421796
342063
325606
315383
306140
297804
290369
283650
277497
271828
266592
261755
257302
253233
249568
246335
243554
241213
239291
237756
236506
235439
234577
233910
233368
232877
232396
231915
231437
230967
230509
230065
229639
229229
228837
228461
228101
227755
227422
227102
226793
226495
226206
225926
225655
225391
225135
224887
224647
224415
224190
223971
223758
223551
223348
223150
222956
222768
222584
222404
222229
222058
221890
221725
221562
221403
221247
221093
220942
220794
220648
220505
220365
220227
220091
219958
219827
219699
219574
219452
219333
219217
219106
219001
218896
218781
218719
218629
218550
218475
218421
218415
218489
218654
218832
218810
218502
217774
217169
217196
216529
216298
216069
215831
215592
215365
215131
214900
214677
214459
214245
214033
213824
213620
213419
213222
213029
212838
212651
212465
212282
212101
211923
211750
211581
211415
211254
211097
210931
210710
210300
209284
206409
889626
885968
880937
873966
865478
855775
845190
834012
822487
810808
799124
787561
776237
765261
754723
744698
735269
726566
718751
712058
706663
702726
700881
701535
705011
712242
725015
746838
783912
846294
947442
891885
587674
389858
334538
321167
311297
302317
294260
287061
280531
274539
269012
263900
259174
254818
250837
247251
244088
241369
239085
237215
235727
234513
233481
232660
232028
231515
231054
230602
230150
229700
229257
228826
228409
228008
227623
227255
226904
226567
226244
225935
225638
225352
225075
224809
224551
224301
224059
223824
223597
223378
223167
222962
222764
222572
222384
222202
222023
221850
221681
221517
221357
221202
221050
220901
220755
220612
220471
220334
220199
220066
219937
219810
219686
219565
219446
219330
219218
219109
219003
218901
218805
218712
218623
218541
218466
218395
218313
218289
218239
218201
218169
218159
218198
218318
218528
218750
218765
218484
217769
217169
217196
216529
216298
216069
215831
215592
215365
215131
214900
214677
214459
214245
214033
213824
213620
213419
213222
213029
212839
212651
212465
212282
212101
211923
211750
211581
211415
211254
211097
210931
210711
210300
209284
206409
876969
873410
868495
861671
853349
843825
833426
822437
811095
799592
788076
776678
765523
754723
744363
734516
725271
716752
709138
702640
697451
693758
692182
693169
697122
705132
719319
743737
785496
856303
957212
799002
515125
363501
328012
316500
306951
298264
290504
283546
277212
271388
266007
261023
256409
252154
248262
244756
241664
239008
236781
234964
233521
232340
231343
230560
229962
229478
229045
228621
228196
227772
227355
226949
226556
226179
225819
225474
225145
224830
224530
224242
223966
223701
223445
223199
222962
222732
222510
222295
222088
221888
221696
221511
221332
221159
220991
220827
220668
220513
220363
220218
220077
219939
219806
219675
219548
219423
219300
219181
219064
218951
218840
218732
218628
218527
218430
218336
218246
218162
218082
218008
217941
217879
217824
217777
217740
217711
217672
217682
217687
217699
217720
217763
217856
218033
218304
218587
218660
218427
217746
217163
217196
216529
216298
216069
215831
215592
215365
215131
214900
214677
214459
214245
214033
213824
213620
213419
213222
213029
212839
212651
212465
212282
212101
211923
211750
211581
211415
211254
211097
210931
210711
210300
209284
206409
864856
861400
856604
849929
841772
832426
822211
811404
800241
788906
777551
766313
755324
744698
734516
724854
715804
707491
700109
693836
688884
685524
684328
685803
690434
699590
716018
743977
792150
874979
946164
695567
448897
343662
322116
311634
302392
294034
286582
279869
273736
268084
262852
257998
253498
249344
245543
242117
239096
236502
234333
232568
231168
230018
229054
228309
227743
227288
226880
226482
226083
225684
225291
224908
224538
224184
223845
223521
223213
222919
222639
222371
222114
221868
221632
221405
221185
220974
220770
220574
220385
220203
220028
219861
219700
219544
219393
219246
219104
218967
218834
218706
218582
218461
218345
218231
218120
218012
217907
217805
217706
217610
217518
217430
217345
217266
217191
217121
217057
217000
216950
216907
216874
216848
216832
216826
216831
216850
216863
216910
216970
217037
217117
217220
217375
217617
217957
218315
218465
218306
217684
217138
217191
216528
216298
216069
215831
215592
215365
215131
214900
214677
214459
214245
214033
213824
213620
213419
213222
213029
212839
212651
212465
212282
212101
211923
211750
211581
211415
211254
211097
210931
210711
210300
209284
206409
853378
850029
845355
838831
830841
821670
811633
801004
790011
778837
767635
756550
745722
735269
725271
715804
706967
698885
691768
685750
681065
678160
677519
679689
685276
696197
715510
748642
805829
903095
878638
593903
393105
330854
316462
306589
297675
289677
282536
276070
270140
264663
259581
254857
250472
246419
242709
239363
236412
233881
231769
230056
228697
227577
226645
225935
225400
224971
224588
224215
223839
223463
223092
222731
222383
222049
221730
221426
221137
220862
220599
220349
220111
219882
219663
219453
219250
219056
218868
218688
218515
218349
218190
218038
217893
217753
217617
217486
217360
217238
217120
217007
216898
216793
216691
216593
216497
216404
216315
216229
216147
216068
215994
215926
215862
215805
215754
215710
215674
215648
215630
215622
215626
215641
215667
215706
215756
215826
215894
215982
216097
216221
216361
216527
216747
217059
217475
217916
218156
218090
217554
217072
217170
216523
216296
216069
215831
215593
215365
215131
214900
214677
214459
214245
214033
213824
213620
213419
213222
213029
212839
212651
212465
212282
212101
211923
211750
211581
211415
211254
211097
210931
210711
210300
209284
206409
842648
839415
834866
828493
820667
811668
801805
791348
780522
769506
758454
747520
736850
726566
716752
707491
698885
691066
684257
678563
674218
671902
672024
675059
682222
695518
718918
759552
829724
926545
757598
494081
354951
322194
310830
301395
292854
285237
278405
272184
266459
261155
256223
251630
247359
243408
239788
236521
233641
231171
229115
227452
226134
225042
224140
223463
222958
222554
222194
221844
221490
221135
220785
220444
220115
219800
219500
219214
218942
218684
218438
218204
217982
217769
217565
217370
217183
217003
216830
216664
216505
216354
216209
216071
215940
215813
215691
215574
215461
215352
215248
215148
215052
214960
214872
214787
214705
214627
214552
214481
214415
214354
214298
214250
214208
214174
214149
214133
214128
214134
214151
214181
214225
214282
214354
214440
214537
214657
214781
214915
215082
215263
215461
215689
215975
216357
216850
217377
217715
217756
217329
216933
217116
216504
216287
216066
215832
215593
215366
215131
214900
214677
214459
214245
214033
213824
213620
213419
213222
213029
212839
212651
212465
212282
212101
211923
211750
211581
211415
211254
211097
210931
210711
210300
209284
206409
832847
829738
825320
819102
811440
802608
792911
782617
771945
761074
750162
739372
728861
718751
709138
700109
691768
684257
677790
672482
668661
666975
668129
672626
681914
698591
728055
779553
867455
893438
627315
411437
332443
315297
305139
296099
287983
280750
274219
268241
262719
257588
252804
248341
244184
240333
236802
233614
230803
228393
226392
224779
223499
222435
221561
220915
220439
220059
219721
219391
219058
218724
218393
218070
217759
217461
217178
216908
216652
216409
216179
215960
215751
215553
215363
215181
215007
214841
214681
214528
214382
214242
214110
213985
213865
213750
213641
213535
213434
213337
213244
213156
213071
212991
212915
212842
212772
212707
212646
212590
212540
212496
212460
212433
212414
212406
212408
212422
212449
212490
212545
212614
212699
212800
212917
213050
213195
213364
213542
213724
213940
214175
214430
214717
215065
215514
216082
216694
217132
217287
216987
216690
216997
216459
216261
216056
215829
215593
215366
215132
214900
214677
214460
214245
214033
213824
213620
213419
213222
213029
212839
212651
212465
212282
212101
211923
211750
211581
211415
211254
211097
210931
210711
210300
209284
206409
824210
821233
816954
810898
803402
794736
785201
775059
764530
753794
743016
732364
722002
712058
702640
693836
685750
678563
672482
667655
664672
664119
666606
673055
685267
706849
745295
812186
907475
761412
503223
357063
320712
308899
299364
290766
283106
276246
270008
264268
258945
253984
249347
245011
240966
237215
233771
230661
227917
225568
223620
222054
220811
219774
218927
218311
217861
217504
217187
216877
216563
216247
215934
215629
215334
215052
214784
214529
214288
214059
213842
213636
213441
213255
213077
212908
212746
212591
212442
212301
212166
212038
211916
211801
211692
211588
211489
211393
211302
211215
211132
211054
210980
210910
210844
210782
210724
210672
210624
210583
210550
210525
210509
210504
210510
210528
210560
210606
210667
210744
210838
210947
211075
211219
211381
211561
211753
211968
212197
212427
212689
212975
213282
213624
214030
214541
215178
215871
216404
216674
216513
216320
216775
216373
216203
216028
215819
215591
215366
215132
214901
214678
214460
214245
214033
213824
213620
213419
213222
213029
212839
212651
212465
212282
212101
211923
211750
211581
211415
211254
211097
210931
210711
210300
209284
206409
816959
814125
809989
804098
796771
788266
778875
768859
758444
747819
737160
726641
716431
706663
697451
688884
681065
674218
668661
664672
662835
663833
668135
677231
693693
723404
775398
862087
867811
606981
403092
329338
312781
302592
293550
285461
278257
271751
265794
260285
255156
250361
245867
241657
237722
234069
230711
227678
225001
222709
220814
219293
218085
217075
216256
215665
215241
214906
214608
214316
214021
213722
213425
213136
212857
212589
212335
212094
211866
211650
211446
211252
211068
210893
210727
210568
210417
210272
210134
210003
209877
209759
209647
209541
209441
209346
209256
209169
209087
209008
208934
208865
208799
208739
208683
208631
208585
208545
208512
208487
208471
208466
208472
208490
208523
208570
208633
208712
208808
208923
209055
209205
209374
209561
209767
209991
210228
210487
210763
211038
211343
211675
212031
212422
212881
213448
214148
214914
215536
215915
215901
215810
216400
216227
216097
215966
215790
215582
215365
215133
214902
214678
214460
214245
214033
213824
213620
213419
213222
213029
212839
212651
212465
212282
212101
211923
211750
211581
211415
211255
211097
210931
210711
210300
209284
206409
811283
808600
804604
798868
791689
783322
774055
764152
753845
743328
732783
722385
712317
702726
693758
685524
678160
671902
666975
664119
663833
666576
673317
686609
710050
751990
822274
900311
705900
468049
345107
317017
305737
296275
287782
280231
273457
267285
261596
256310
251370
246736
242382
238294
234467
230909
227636
224677
222065
219831
217986
216509
215335
214351
213559
212993
212591
212277
211997
211723
211444
211162
210881
210606
210341
210087
209846
209618
209402
209197
209004
208821
208648
208484
208327
208178
208037
207901
207772
207649
207533
207423
207319
207222
207130
207043
206960
206881
206806
206735
206669
206607
206550
206498
206452
206411
206377
206350
206332
206323
206327
206342
206372
206416
206477
206554
206649
206763
206895
207047
207218
207407
207617
207845
208092
208358
208638
208938
209256
209574
209918
210291
210690
211126
211632
212249
213005
213835
214538
215012
215152
215166
215829
215989
215929
215856
215728
215554
215356
215132
214902
214679
214461
214245
214033
213824
213620
213419
213222
213029
212839
212651
212465
212282
212101
211923
211750
211581
211415
211255
211097
210931
210711
210300
209284
206409
807507
805007
801196
795660
788660
780447
771312
761529
751335
740931
730502
720226
710291
700881
692182
684328
677519
672024
668129
666606
668135
673317
684227
703807
738535
798417
884255
787912
532406
370110
322013
308764
298870
290016
282137
275102
268723
262864
257431
252358
247599
243121
238903
234934
231212
227747
224557
221670
219122
216944
215148
213712
212570
211613
210847
210304
209923
209628
209366
209109
208846
208578
208312
208051
207799
207558
207329
207112
206907
206713
206531
206358
206194
206039
205892
205751
205618
205491
205370
205255
205146
205044
204947
204857
204772
204692
204616
204543
204475
204411
204351
204297
204248
204205
204168
204139
204117
204104
204103
204113
204136
204175
204230
204301
204391
204500
204629
204777
204945
205134
205342
205571
205819
206085
206371
206676
206997
207335
207691
208047
208427
208836
209273
209749
210295
210957
211761
212646
213422
213976
214264
214404
215064
215578
215694
215686
215617
215492
215327
215123
214901
214680
214462
214246
214033
213825
213620
213419
213222
213029
212839
212651
212466
212282
212101
211923
211750
211581
211415
211255
211097
210931
210711
210300
209284
206409
806160
803843
800229
794907
788111
780075
771088
761428
751335
741016
730674
720516
710732
701535
693169
685803
679689
675059
672626
673055
677231
686609
703807
733968
787361
866854
834800
588664
399559
328167
311593
301245
292094
283926
276652
270084
264069
258502
253310
248441
243855
239527
235440
231586
227967
224592
221482
218666
216180
214056
212307
210911
209799
208870
208128
207608
207246
206969
206724
206482
206234
205981
205728
205480
205240
205011
204793
204587
204392
204208
204035
203871
203716
203570
203430
203298
203172
203053
202939
202831
202729
202633
202543
202459
202380
202306
202236
202169
202107
202049
201996
201949
201908
201874
201848
201830
201822
201826
201842
201872
201918
201981
202062
202163
202283
202424
202586
202769
202973
203197
203442
203708
203992
204295
204617
204958
205314
205687
206078
206468
206879
207321
207791
208301
208883
209584
210430
211362
212201
212818
213237
213534
214157
214902
215360
215452
215446
215382
215266
215096
214892
214679
214463
214248
214034
213825
213620
213419
213222
213029
212839
212651
212466
212282
212101
211923
211750
211581
211415
211255
211097
210931
210711
210300
209284
206409
807978
805840
802386
797225
790565
782646
773756
764167
754125
743847
733556
723508
713903
705011
697122
690434
685276
682222
681914
685267
693693
710050
738535
787361
861006
854364
626775
425364
334915
314062
303297
293930
285537
278065
271336
265186
259504
254209
249245
244568
240147
235963
232002
228259
224738
221451
218419
215672
213247
211175
209472
208113
207031
206127
205411
204912
204567
204306
204077
203851
203617
203377
203137
202901
202673
202454
202247
202051
201865
201691
201526
201371
201224
201085
200953
200828
200709
200596
200489
200387
200292
200201
200117
200038
199965
199896
199831
199770
199713
199661
199615
199575
199542
199518
199503
199499
199507
199527
199563
199615
199685
199774
199884
200014
200166
200339
200535
200751
200990
201249
201528
201828
202147
202484
202838
203211
203601
204004
204426
204846
205285
205755
206255
206795
207408
208142
209023
209995
210887
211555
212076
212556
213171
214031
214790
215111
215205
215214
215160
215039
214864
214670
214462
214249
214036
213826
213621
213420
213222
213029
212839
212651
212466
212282
212101
211923
211750
211581
211415
211255
211097
210931
210711
210300
209284
206409
813120
811187
807933
802985
796517
788748
779946
770388
760344
750079
739848
729958
720628
712242
705132