/*--------------------------------*- C++ -*----------------------------------*\
  =========                 |
  \\      /  F ield         | OpenFOAM: The Open Source CFD Toolbox
   \\    /   O peration     | Website:  https://openfoam.org
    \\  /    A nd           | Version:  13
     \\/     M anipulation  |
\*---------------------------------------------------------------------------*/
FoamFile
{
    format      ascii;
    class       surfaceScalarField;
    location    "0.0014";
    object      phi;
}
// * * * * * * * * * * * * * * * * * * * * * * * * * * * * * * * * * * * * * //

dimensions      [1 0 -1 0 0 0 0];

internalField   nonuniform List<scalar> 
66301
(
0.00982388
0.00982388
0.0220017
0.00978578
0.036619
0.00971703
0.0541409
0.00962169
0.0742925
0.00947697
0.0965169
0.00910321
0.119865
0.00950285
0.14444
0.00914591
0.168977
0.00825155
0.193218
0.00808467
0.217011
0.00788637
0.240186
0.00767796
0.262583
0.0074549
0.284066
0.00721395
0.304566
0.00695385
0.324137
0.00667394
0.342959
0.00636729
0.36127
0.00603742
0.379367
0.00568163
0.397702
0.00529703
0.416752
0.00489013
0.437051
0.00445664
0.460509
0.00400079
0.488349
0.00354316
0.521047
0.00308389
0.561724
0.00260436
0.615024
0.00212501
0.688139
0.00168081
0.793719
0.00128349
0.957245
0.000939741
1.21472
0.000659817
1.60555
0.000444249
1.75244
0.000175794
1.08365
4.18174e-05
0.48007
2.18494e-05
0.435692
4.15316e-06
0.432158
3.89214e-06
0.428031
3.64386e-06
0.423482
3.27341e-06
0.420696
3.28063e-06
0.419424
3.25049e-06
0.419137
3.08537e-06
0.419193
3.47654e-06
0.419752
3.4157e-06
0.420686
3.41676e-06
0.421639
3.50383e-06
0.422489
3.58924e-06
0.423077
3.68386e-06
0.423194
4.27864e-06
0.423023
3.86516e-06
0.422299
4.40574e-06
0.421113
4.52141e-06
0.419592
4.57296e-06
0.417823
4.7035e-06
0.415907
4.79255e-06
0.413881
4.91103e-06
0.411699
4.98016e-06
0.409513
4.98938e-06
0.407444
4.96715e-06
0.405512
4.92299e-06
0.40371
4.92408e-06
0.402021
4.89579e-06
0.400425
4.86655e-06
0.398908
4.85427e-06
0.397454
4.8487e-06
0.396058
4.85307e-06
0.394712
4.8631e-06
0.393412
4.88117e-06
0.392154
4.89344e-06
0.390935
4.86544e-06
0.389753
4.82198e-06
0.388606
4.76869e-06
0.387494
4.74415e-06
0.386414
4.71757e-06
0.385365
4.70265e-06
0.384347
4.69979e-06
0.383357
4.68667e-06
0.382394
4.70578e-06
0.381457
4.66067e-06
0.380543
4.68765e-06
0.379651
4.62473e-06
0.378779
4.66929e-06
0.377924
4.60472e-06
0.377088
4.66062e-06
0.376269
4.57844e-06
0.375469
4.63778e-06
0.374688
4.57067e-06
0.373923
4.58172e-06
0.373174
4.58489e-06
0.372439
4.51053e-06
0.371718
4.56486e-06
0.37101
4.5355e-06
0.370313
4.48754e-06
0.369629
4.54529e-06
0.368958
4.48097e-06
0.368299
4.48337e-06
0.367652
4.46454e-06
0.367016
4.47646e-06
0.366391
4.41808e-06
0.365776
4.39346e-06
0.36517
4.39556e-06
0.364573
4.36586e-06
0.363984
4.36016e-06
0.363404
4.32459e-06
0.362832
4.25713e-06
0.362267
4.14909e-06
0.361711
4.07512e-06
0.361161
4.08932e-06
0.360619
4.18427e-06
0.360088
4.2625e-06
0.359567
4.18516e-06
0.359056
3.98289e-06
0.358552
3.88399e-06
0.358049
4.21879e-06
0.357531
4.65051e-06
0.35699
4.25161e-06
0.356455
2.35709e-06
0.355983
-9.1393e-07
0.355552
-4.58804e-06
0.355531
-6.19049e-06
0.356182
-1.09035e-05
0.358302
-1.82024e-05
0.363284
-2.62615e-05
0.373341
-3.28106e-05
0.391689
-3.62097e-05
0.42256
-3.49339e-05
0.470667
-3.21479e-05
0.539004
-3.24652e-05
0.623931
-2.82767e-05
0.710371
-1.48213e-05
0.775151
2.45496e-06
0.810142
1.69889e-05
0.818822
5.75226e-06
0.818996
1.4412e-06
0.817216
4.11404e-08
0.814967
-3.01563e-06
0.812446
-5.7729e-06
0.809972
-7.81545e-06
0.80774
-8.65551e-06
0.805679
-8.63495e-06
0.80381
-8.23196e-06
0.802159
-7.79438e-06
0.800643
-7.44046e-06
0.799159
-7.18127e-06
0.797642
-6.99344e-06
0.796078
-6.85891e-06
0.794491
-6.76247e-06
0.79291
-6.69233e-06
0.791362
-6.63225e-06
0.789857
-6.56751e-06
0.788396
-6.5353e-06
0.78697
-6.51835e-06
0.785567
-6.50473e-06
0.784176
-6.4911e-06
0.782792
-6.47517e-06
0.781418
-6.45554e-06
0.780061
-6.43221e-06
0.778737
-6.40665e-06
0.777454
-6.37743e-06
0.776209
-6.3487e-06
0.774942
-6.35311e-06
0.773455
-6.42451e-06
0.7712
-6.52958e-06
0.766665
-6.599e-06
0.755263
-6.60815e-06
-6.51862e-06
0.00978578
0.0220017
0.0219278
0.0219278
0.0365084
0.0217888
0.0539975
0.0215692
0.0740839
0.0212473
0.0961765
0.0208959
0.119898
0.0206582
0.143966
0.0197291
0.168294
0.0193455
0.192469
0.018949
0.216188
0.018532
0.239277
0.0180891
0.261589
0.0176176
0.282993
0.0171161
0.30342
0.0165818
0.322925
0.0160117
0.341679
0.0154008
0.359928
0.0147449
0.377972
0.0140369
0.396258
0.0132834
0.415286
0.0124791
0.435543
0.0116217
0.458951
0.0107157
0.486827
0.00976966
0.519509
0.00882625
0.560239
0.00781971
0.613619
0.00677469
0.686832
0.00575338
0.792529
0.00477679
0.956191
0.00387619
1.21378
0.00311214
1.60472
0.00253907
1.75187
0.0015141
1.08352
0.000565264
0.480139
6.68328e-05
0.435755
1.15566e-05
0.432221
8.06639e-06
0.428097
6.56272e-06
0.423551
5.27664e-06
0.420767
4.62886e-06
0.419499
4.16106e-06
0.419214
3.94945e-06
0.419271
3.77519e-06
0.419836
3.71778e-06
0.420773
3.6967e-06
0.421729
3.74569e-06
0.422582
3.82029e-06
0.423175
3.90891e-06
0.423292
4.09111e-06
0.423131
4.46521e-06
0.422409
4.52777e-06
0.421228
4.64415e-06
0.419711
4.67206e-06
0.417948
4.95892e-06
0.416036
5.01058e-06
0.414016
5.10992e-06
0.411838
4.98289e-06
0.409658
4.94566e-06
0.407594
4.88383e-06
0.405667
4.8899e-06
0.40387
4.89912e-06
0.402186
4.87482e-06
0.400596
4.82905e-06
0.399083
4.80967e-06
0.397635
4.78907e-06
0.396243
4.78371e-06
0.394902
4.77535e-06
0.393607
4.77236e-06
0.392354
4.77397e-06
0.39114
4.72772e-06
0.389963
4.70524e-06
0.388821
4.65444e-06
0.387714
4.66074e-06
0.386639
4.62813e-06
0.385595
4.61319e-06
0.384581
4.63129e-06
0.383596
4.56115e-06
0.382638
4.66257e-06
0.381706
4.50631e-06
0.380797
4.6724e-06
0.37991
4.46489e-06
0.379042
4.6633e-06
0.378192
4.43329e-06
0.37736
4.67282e-06
0.376547
4.38375e-06
0.375751
4.65401e-06
0.374974
4.43595e-06
0.374214
4.44587e-06
0.37347
4.62545e-06
0.37274
4.27469e-06
0.372023
4.49444e-06
0.371319
4.54229e-06
0.370628
4.20225e-06
0.369949
4.48039e-06
0.369282
4.41906e-06
0.368627
4.31699e-06
0.367985
4.1766e-06
0.367354
4.43298e-06
0.366734
4.31349e-06
0.366123
4.07849e-06
0.365522
4.16016e-06
0.364929
4.23783e-06
0.364345
4.1767e-06
0.363769
3.96655e-06
0.363202
3.9134e-06
0.362642
3.93085e-06
0.362089
3.86637e-06
0.361544
3.75255e-06
0.361007
3.74853e-06
0.36048
3.79366e-06
0.359964
3.63709e-06
0.359458
3.26998e-06
0.358959
3.02943e-06
0.358461
3.26559e-06
0.357949
3.94616e-06
0.357413
3.0876e-06
0.356882
1.05516e-06
0.356408
-1.7596e-06
0.355973
-3.08336e-06
0.355946
-6.4199e-06
0.356582
-8.92562e-06
0.358677
-1.42102e-05
0.363621
-2.01499e-05
0.373628
-2.53024e-05
0.391919
-2.75698e-05
0.422737
-1.91819e-05
0.470798
-2.35383e-05
0.539093
-2.80918e-05
0.623995
-3.25314e-05
0.710448
-3.75765e-05
0.775277
-2.69166e-05
0.810322
-1.3482e-05
0.819046
-1.10199e-05
0.819223
-6.34032e-06
0.81745
-6.44005e-06
0.815203
-6.73798e-06
0.812678
-7.68642e-06
0.810196
-8.23128e-06
0.807956
-8.38008e-06
0.805885
-8.17995e-06
0.804008
-7.76301e-06
0.802348
-7.40041e-06
0.800824
-7.124e-06
0.799332
-6.90848e-06
0.797808
-6.7288e-06
0.796238
-6.5825e-06
0.794643
-6.45923e-06
0.793055
-6.3557e-06
0.7915
-6.26196e-06
0.789988
-6.17308e-06
0.78852
-6.16261e-06
0.787087
-6.11345e-06
0.785677
-6.07408e-06
0.784279
-6.04061e-06
0.782888
-6.0086e-06
0.781507
-5.9753e-06
0.780144
-5.93996e-06
0.778812
-5.9038e-06
0.777522
-5.86851e-06
0.77627
-5.84686e-06
0.774997
-5.8678e-06
0.773502
-5.93504e-06
0.77124
-6.00786e-06
0.766697
-6.05786e-06
0.755288
-6.07128e-06
-5.98127e-06
0.00971703
0.036619
0.0217888
0.0365084
0.0362973
0.0362973
0.053708
0.0359453
0.0736975
0.0354901
0.0957334
0.0349986
0.119138
0.0343537
0.14307
0.033643
0.167277
0.0330222
0.191313
0.0323883
0.214895
0.0317259
0.237847
0.0310267
0.260023
0.0302912
0.281292
0.0295185
0.301585
0.0287048
0.320955
0.0278442
0.339583
0.0269298
0.357708
0.0259591
0.375626
0.0249185
0.393793
0.0238249
0.41274
0.022655
0.432905
0.0213914
0.456205
0.0200792
0.484038
0.0187114
0.516604
0.017318
0.557328
0.0158177
0.61073
0.0142474
0.683988
0.0126675
0.789762
0.0111035
0.953551
0.00960482
1.21129
0.00831802
1.60227
0.00759482
1.74956
0.00559363
1.08181
0.00255945
0.480026
0.000448728
0.435743
0.000126981
0.432209
9.19442e-05
0.428086
7.22504e-05
0.423543
5.52411e-05
0.420762
4.23422e-05
0.419494
3.24628e-05
0.419212
2.50191e-05
0.419269
2.0122e-05
0.419834
1.58687e-05
0.420772
1.26499e-05
0.421728
1.04221e-05
0.422582
8.83989e-06
0.423175
7.76143e-06
0.423292
7.20109e-06
0.423131
6.6051e-06
0.422408
6.32378e-06
0.421228
6.09378e-06
0.419711
5.92588e-06
0.417948
5.80166e-06
0.416036
5.73428e-06
0.414016
5.77426e-06
0.411838
5.75183e-06
0.409658
5.67765e-06
0.407594
5.55492e-06
0.405667
5.46845e-06
0.40387
5.32918e-06
0.402186
5.17912e-06
0.400596
5.07277e-06
0.399083
5.0024e-06
0.397635
4.93803e-06
0.396243
4.88136e-06
0.394902
4.84503e-06
0.393607
4.80695e-06
0.392354
4.77632e-06
0.39114
4.69545e-06
0.389963
4.65031e-06
0.388822
4.55787e-06
0.387714
4.5797e-06
0.386639
4.56591e-06
0.385595
4.5667e-06
0.384581
4.59934e-06
0.383596
4.50774e-06
0.382638
4.65113e-06
0.381706
4.40438e-06
0.380797
4.66683e-06
0.37991
4.33237e-06
0.379042
4.65409e-06
0.378192
4.27371e-06
0.37736
4.66665e-06
0.376547
4.18684e-06
0.375751
4.64811e-06
0.374975
4.28397e-06
0.374215
4.3266e-06
0.37347
4.63797e-06
0.37274
4.06163e-06
0.372023
4.43295e-06
0.37132
4.51504e-06
0.370628
3.95883e-06
0.369949
4.41901e-06
0.369282
4.32348e-06
0.368628
4.14836e-06
0.367985
3.93843e-06
0.367354
4.37722e-06
0.366734
4.166e-06
0.366123
3.79415e-06
0.365522
3.94955e-06
0.364929
4.09023e-06
0.364345
3.96861e-06
0.363769
3.63609e-06
0.363202
3.60405e-06
0.362642
3.70518e-06
0.36209
3.63265e-06
0.361545
3.41648e-06
0.361008
3.32303e-06
0.36048
3.31512e-06
0.359965
3.10402e-06
0.359459
2.63955e-06
0.358959
2.24994e-06
0.358461
2.28731e-06
0.357948
2.62693e-06
0.357414
2.17612e-06
0.356882
3.1662e-07
0.356408
-2.27717e-06
0.355974
-3.39096e-06
0.355946
-6.72811e-06
0.356581
-8.25529e-06
0.358674
-1.15768e-05
0.363616
-1.51425e-05
0.37362
-1.67912e-05
0.391913
-1.57144e-05
0.42273
-1.54362e-05
0.47078
-1.86657e-05
0.539068
-2.55379e-05
0.623975
-3.68533e-05
0.710434
-4.61184e-05
0.775274
-3.68184e-05
0.810325
-2.76157e-05
0.819048
-1.64171e-05
0.819225
-1.19394e-05
0.81745
-1.10481e-05
0.815204
-1.0157e-05
0.812678
-9.4947e-06
0.810196
-8.70421e-06
0.807956
-8.29706e-06
0.805885
-7.96626e-06
0.804008
-7.54981e-06
0.802348
-7.20086e-06
0.800824
-6.93998e-06
0.799332
-6.73529e-06
0.797808
-6.56401e-06
0.796238
-6.4081e-06
0.794643
-6.27247e-06
0.793055
-6.15426e-06
0.7915
-6.05003e-06
0.789988
-5.97493e-06
0.78852
-5.91137e-06
0.787087
-5.8488e-06
0.785677
-5.79722e-06
0.784279
-5.75338e-06
0.782888
-5.71401e-06
0.781507
-5.67704e-06
0.780143
-5.64173e-06
0.778811
-5.61017e-06
0.777522
-5.58796e-06
0.776269
-5.58761e-06
0.774996
-5.61737e-06
0.773501
-5.66524e-06
0.771239
-5.71233e-06
0.766697
-5.74397e-06
0.755287
-5.71955e-06
-5.53835e-06
0.00962169
0.0541409
0.0215692
0.0539975
0.0359453
0.053708
0.0532107
0.0532107
0.0730505
0.0525955
0.0949128
0.0518803
0.118058
0.0510525
0.14189
0.05025
0.165926
0.0493903
0.189766
0.0484956
0.213155
0.047561
0.235921
0.046585
0.257915
0.0455703
0.279004
0.0445156
0.29912
0.0434172
0.318313
0.0422665
0.336767
0.0410549
0.354718
0.0397862
0.372459
0.0384358
0.390444
0.0370345
0.409249
0.0355344
0.429265
0.0339086
0.452364
0.0322497
0.480054
0.0305303
0.512394
0.0287635
0.553012
0.0268064
0.606299
0.0248083
0.679442
0.0227591
0.785131
0.0206961
0.948895
0.0186925
1.2068
0.0170209
1.59779
0.0167374
1.74427
0.0140987
1.07602
0.00723761
0.479458
0.00164808
0.435641
0.000673213
0.432119
0.000529323
0.428001
0.000441004
0.423474
0.000360334
0.420707
0.000294503
0.419451
0.000240336
0.419178
0.000195544
0.419236
0.00016398
0.419812
0.000133491
0.420754
0.000107934
0.421714
8.78571e-05
0.42257
7.15731e-05
0.423166
5.82198e-05
0.423284
4.79948e-05
0.423126
3.75188e-05
0.422404
3.18816e-05
0.421224
2.62796e-05
0.419709
2.17382e-05
0.417946
1.80582e-05
0.416035
1.50786e-05
0.414015
1.309e-05
0.411837
1.14116e-05
0.409658
1.01408e-05
0.407594
9.07247e-06
0.405667
8.29286e-06
0.40387
7.61127e-06
0.402186
7.05502e-06
0.400596
6.62528e-06
0.399083
6.29597e-06
0.397635
6.03212e-06
0.396243
5.83792e-06
0.394902
5.69122e-06
0.393607
5.55806e-06
0.392354
5.45708e-06
0.39114
5.31431e-06
0.389963
5.2421e-06
0.388821
5.1007e-06
0.387714
5.0389e-06
0.386639
4.91549e-06
0.385595
4.83241e-06
0.384581
4.80775e-06
0.383596
4.64139e-06
0.382638
4.77518e-06
0.381706
4.47525e-06
0.380797
4.74576e-06
0.37991
4.35618e-06
0.379042
4.69209e-06
0.378192
4.25431e-06
0.37736
4.66764e-06
0.376547
4.12596e-06
0.375751
4.59749e-06
0.374974
4.21726e-06
0.374214
4.25944e-06
0.37347
4.61876e-06
0.37274
3.93257e-06
0.372023
4.38304e-06
0.37132
4.46926e-06
0.370628
3.78908e-06
0.369949
4.34903e-06
0.369282
4.21813e-06
0.368628
4.01261e-06
0.367985
3.75291e-06
0.367354
4.27111e-06
0.366734
4.00249e-06
0.366123
3.56385e-06
0.365522
3.76005e-06
0.364929
3.91117e-06
0.364345
3.74836e-06
0.363769
3.34776e-06
0.363202
3.32479e-06
0.362642
3.45225e-06
0.362089
3.35985e-06
0.361544
3.0801e-06
0.361007
2.9136e-06
0.36048
2.82815e-06
0.359964
2.55541e-06
0.359458
2.07255e-06
0.358959
1.64213e-06
0.35846
1.49962e-06
0.357948
1.45225e-06
0.357413
9.48238e-07
0.356882
-6.6011e-07
0.356408
-2.90199e-06
0.355974
-4.27224e-06
0.355945
-6.6579e-06
0.356579
-7.51806e-06
0.358673
-9.53744e-06
0.363615
-1.17771e-05
0.373617
-1.31563e-05
0.391903
-1.40028e-05
0.422709
-1.5758e-05
0.47075
-1.92202e-05
0.539031
-2.68491e-05
0.623936
-3.71657e-05
0.710405
-4.21555e-05
0.775263
-3.60919e-05
0.810324
-2.93151e-05
0.819052
-1.79241e-05
0.819228
-1.44124e-05
0.817452
-1.3471e-05
0.815204
-1.20315e-05
0.812678
-1.07248e-05
0.810196
-9.43467e-06
0.807955
-8.64172e-06
0.805885
-8.07467e-06
0.804008
-7.58392e-06
0.802348
-7.21115e-06
0.800824
-6.94129e-06
0.799332
-6.72983e-06
0.797808
-6.5449e-06
0.796238
-6.37102e-06
0.794643
-6.21833e-06
0.793055
-6.08619e-06
0.7915
-5.96948e-06
0.789988
-5.87128e-06
0.78852
-5.78715e-06
0.787087
-5.71879e-06
0.785677
-5.66267e-06
0.784279
-5.61509e-06
0.782888
-5.5733e-06
0.781506
-5.53629e-06
0.780143
-5.50414e-06
0.778811
-5.47927e-06
0.777521
-5.4663e-06
0.776269
-5.47096e-06
0.774995
-5.49142e-06
0.773501
-5.51628e-06
0.771238
-5.53178e-06
0.766696
-5.52009e-06
0.755286
-5.45454e-06
-5.31788e-06
0.00947697
0.0742925
0.0212473
0.0740839
0.0354901
0.0736975
0.0525955
0.0730505
0.0722455
0.0722455
0.0938801
0.0713133
0.116815
0.0703049
0.140452
0.069249
0.16426
0.0681217
0.187865
0.0669411
0.211024
0.0657143
0.233564
0.0644452
0.255337
0.0631376
0.276206
0.0617907
0.296102
0.0604008
0.315076
0.0589583
0.333311
0.0574538
0.351042
0.0559025
0.368555
0.0542593
0.386298
0.0525736
0.404892
0.0507749
0.424728
0.0488353
0.447542
0.0469023
0.474956
0.044885
0.506988
0.042835
0.547402
0.0404542
0.600446
0.0381402
0.673307
0.0357563
0.778727
0.0333457
0.942306
0.0310836
1.20064
0.0294578
1.592
0.0303082
1.73501
0.0284818
1.06259
0.0155211
0.477848
0.00417645
0.435281
0.00210418
0.431793
0.00174543
0.427687
0.00151448
0.423204
0.00129804
0.420479
0.001113
0.419256
0.00095641
0.419015
0.000821252
0.419073
0.000722496
0.419687
0.000620075
0.420644
0.00053142
0.421618
0.000457204
0.422487
0.000393151
0.423098
0.000337268
0.423218
0.000291281
0.42308
0.000242187
0.422361
0.000211821
0.421189
0.000181219
0.419679
0.00015451
0.417922
0.000130856
0.416014
0.000109674
0.413998
9.40559e-05
0.411824
7.89466e-05
0.409647
6.67244e-05
0.407585
5.5808e-05
0.40566
4.65948e-05
0.403864
3.89206e-05
0.402181
3.25019e-05
0.400592
2.71703e-05
0.39908
2.27666e-05
0.397633
1.91526e-05
0.396242
1.62278e-05
0.394901
1.3868e-05
0.393606
1.19544e-05
0.392353
1.04571e-05
0.391139
9.22114e-06
0.389963
8.33025e-06
0.388821
7.57765e-06
0.387713
7.0351e-06
0.386638
6.51179e-06
0.385595
6.1272e-06
0.384581
5.88044e-06
0.383596
5.51885e-06
0.382638
5.5427e-06
0.381706
5.08855e-06
0.380797
5.33831e-06
0.37991
4.80886e-06
0.379042
5.1744e-06
0.378192
4.6011e-06
0.37736
5.07798e-06
0.376546
4.39333e-06
0.375751
4.93811e-06
0.374974
4.40365e-06
0.374214
4.40551e-06
0.37347
4.77072e-06
0.37274
3.98594e-06
0.372023
4.45389e-06
0.37132
4.51866e-06
0.370628
3.78843e-06
0.369949
4.37161e-06
0.369282
4.21498e-06
0.368627
3.99023e-06
0.367985
3.69816e-06
0.367354
4.23448e-06
0.366734
3.91319e-06
0.366123
3.42097e-06
0.365522
3.62156e-06
0.364929
3.76637e-06
0.364345
3.56483e-06
0.363769
3.1175e-06
0.363201
3.10081e-06
0.362642
3.22344e-06
0.362089
3.08835e-06
0.361544
2.7485e-06
0.361007
2.52635e-06
0.36048
2.37447e-06
0.359964
2.02963e-06
0.359458
1.53656e-06
0.358959
1.13382e-06
0.35846
9.32972e-07
0.357947
6.25613e-07
0.357412
-1.72745e-07
0.356881
-1.75071e-06
0.356407
-3.6401e-06
0.355973
-5.04605e-06
0.355944
-6.5627e-06
0.356578
-7.31272e-06
0.358672
-8.929e-06
0.363612
-1.10886e-05
0.373612
-1.30015e-05
0.391893
-1.47023e-05
0.422692
-1.66975e-05
0.470727
-2.02522e-05
0.539001
-2.6503e-05
0.623904
-3.33523e-05
0.710382
-3.53646e-05
0.775253
-3.18759e-05
0.810324
-2.65149e-05
0.819055
-1.77314e-05
0.819232
-1.53563e-05
0.817454
-1.4474e-05
0.815204
-1.28787e-05
0.812678
-1.14282e-05
0.810196
-1.0067e-05
0.807955
-9.06122e-06
0.805885
-8.34188e-06
0.804008
-7.77292e-06
0.802348
-7.35662e-06
0.800824
-7.05244e-06
0.799332
-6.8136e-06
0.797808
-6.60615e-06
0.796237
-6.41676e-06
0.794643
-6.24619e-06
0.793055
-6.09652e-06
0.7915
-5.96683e-06
0.789988
-5.85297e-06
0.78852
-5.75502e-06
0.787087
-5.67337e-06
0.785677
-5.60935e-06
0.784279
-5.55678e-06
0.782888
-5.51096e-06
0.781506
-5.47204e-06
0.780143
-5.43996e-06
0.778811
-5.41614e-06
0.777521
-5.40235e-06
0.776268
-5.39919e-06
0.774995
-5.39987e-06
0.7735
-5.39872e-06
0.771238
-5.39188e-06
0.766696
-5.3781e-06
0.755286
-5.3511e-06
-5.20837e-06
0.00910321
0.0965169
0.0208959
0.0961765
0.0349986
0.0957334
0.0518803
0.0949128
0.0713133
0.0938801
0.0927203
0.0927203
0.115424
0.0914687
0.138799
0.0901218
0.162338
0.088697
0.185676
0.0872108
0.208573
0.0856763
0.230858
0.0841013
0.252377
0.0824907
0.272996
0.0808446
0.29264
0.0791589
0.311363
0.0774238
0.329343
0.0756328
0.346815
0.0738128
0.364063
0.0718899
0.381522
0.0699356
0.399851
0.0678693
0.419465
0.0656681
0.441936
0.0635317
0.468984
0.0612431
0.500628
0.0590039
0.540755
0.0562486
0.593473
0.0536779
0.665946
0.051082
0.770995
0.0485039
0.934375
0.0463568
1.19391
0.0454766
1.58637
0.0489602
1.72099
0.048435
1.03785
0.0277341
0.474611
0.00829623
0.434473
0.00475709
0.431055
0.00408449
0.426961
0.00363279
0.422554
0.00320713
0.419907
0.00283285
0.418754
0.00251195
0.41857
0.00223395
0.418633
0.00201609
0.419319
0.00179408
0.420304
0.00159889
0.421307
0.00142806
0.422205
0.00127563
0.42285
0.00113873
0.422975
0.00101938
0.422883
0.000895255
0.422176
0.000809061
0.421028
0.000723403
0.419537
0.00064574
0.417796
0.0005738
0.415902
0.000506217
0.413898
0.000453031
0.411737
0.000399026
0.409572
0.000353656
0.40752
0.000311099
0.405604
0.000272612
0.403817
0.000238327
0.402141
0.000207751
0.400558
0.000180484
0.399051
0.000156229
0.397608
0.000134746
0.396221
0.00011583
0.394884
9.9235e-05
0.393592
8.47064e-05
0.392342
7.2098e-05
0.39113
6.11238e-05
0.389955
5.17616e-05
0.388815
4.36433e-05
0.387708
3.68216e-05
0.386634
3.09736e-05
0.385591
2.60856e-05
0.384578
2.20668e-05
0.383594
1.85347e-05
0.382636
1.59772e-05
0.381704
1.33434e-05
0.380796
1.19038e-05
0.379909
9.90438e-06
0.379041
9.22711e-06
0.378192
7.67739e-06
0.37736
7.56299e-06
0.376546
6.24566e-06
0.375751
6.50395e-06
0.374974
5.57801e-06
0.374214
5.33968e-06
0.37347
5.55067e-06
0.37274
4.52352e-06
0.372023
4.94779e-06
0.371319
4.91565e-06
0.370628
4.02979e-06
0.369949
4.64124e-06
0.369282
4.40011e-06
0.368627
4.13031e-06
0.367985
3.80035e-06
0.367354
4.35209e-06
0.366734
3.98818e-06
0.366123
3.48166e-06
0.365521
3.68585e-06
0.364929
3.79857e-06
0.364345
3.55575e-06
0.363769
3.06574e-06
0.363201
3.03218e-06
0.362641
3.13222e-06
0.362089
2.95088e-06
0.361544
2.55001e-06
0.361007
2.27479e-06
0.36048
2.08021e-06
0.359964
1.69491e-06
0.359458
1.16884e-06
0.358958
7.39791e-07
0.358459
5.09349e-07
0.357947
1.06273e-07
0.357411
-8.37092e-07
0.35688
-2.48906e-06
0.356405
-4.28279e-06
0.355971
-5.59429e-06
0.355943
-6.78081e-06
0.356577
-7.51391e-06
0.35867
-9.01903e-06
0.36361
-1.0828e-05
0.373609
-1.27695e-05
0.391888
-1.45941e-05
0.422685
-1.64901e-05
0.470715
-1.95106e-05
0.538986
-2.39662e-05
0.623887
-2.80271e-05
0.71037
-2.91815e-05
0.775247
-2.74672e-05
0.810325
-2.33472e-05
0.819058
-1.71109e-05
0.819234
-1.54889e-05
0.817455
-1.46675e-05
0.815206
-1.31332e-05
0.812679
-1.17439e-05
0.810196
-1.04208e-05
0.807956
-9.37216e-06
0.805885
-8.61809e-06
0.804008
-8.02169e-06
0.802348
-7.57268e-06
0.800824
-7.23255e-06
0.799332
-6.95907e-06
0.797808
-6.72218e-06
0.796237
-6.50979e-06
0.794643
-6.31768e-06
0.793055
-6.14418e-06
0.7915
-5.99203e-06
0.789988
-5.86431e-06
0.78852
-5.75517e-06
0.787087
-5.66367e-06
0.785677
-5.58655e-06
0.784278
-5.52196e-06
0.782888
-5.47159e-06
0.781506
-5.42964e-06
0.780143
-5.39497e-06
0.778811
-5.36776e-06
0.777521
-5.34802e-06
0.776268
-5.33564e-06
0.774995
-5.32606e-06
0.7735
-5.31803e-06
0.771238
-5.30944e-06
0.766696
-5.29642e-06
0.755286
-5.26031e-06
-5.11102e-06
0.00950285
0.119865
0.0206582
0.119898
0.0343537
0.119138
0.0510525
0.118058
0.0703049
0.116815
0.0914687
0.115424
0.113891
0.113891
0.136971
0.11224
0.160215
0.1105
0.183263
0.108696
0.205877
0.106844
0.227885
0.104958
0.24913
0.103042
0.269474
0.101098
0.288845
0.0991201
0.307293
0.0970987
0.324996
0.0950324
0.342182
0.0929589
0.359138
0.090772
0.376299
0.0885599
0.394333
0.0862611
0.413698
0.0838355
0.435795
0.0815555
0.462424
0.07902
0.493651
0.076661
0.533389
0.0736341
0.585728
0.070802
0.65782
0.0680715
0.762544
0.0655392
0.926001
0.0640211
1.18901
0.0642394
1.58219
0.0758871
1.70156
0.0718376
0.998517
0.0429524
0.469328
0.0143189
0.43308
0.00882053
0.429767
0.00773534
0.425679
0.00699002
0.421381
0.00628623
0.418857
0.00565862
0.417811
0.00512156
0.417683
0.00465279
0.417848
0.00425733
0.418575
0.00388181
0.419594
0.00354448
0.42064
0.00323968
0.421581
0.00296291
0.422263
0.00271118
0.422432
0.00248244
0.422379
0.00225492
0.421713
0.00208256
0.420605
0.00191493
0.419149
0.00175965
0.417438
0.00161113
0.415573
0.00147492
0.413598
0.00135924
0.411459
0.00123756
0.409319
0.00113493
0.407291
0.00103674
0.405397
0.000944089
0.403629
0.000858417
0.401971
0.000779169
0.400404
0.000705738
0.398913
0.000637743
0.397485
0.000574923
0.396111
0.000517037
0.394786
0.000463804
0.393506
0.000414912
0.392265
0.00037017
0.391063
0.000329226
0.389896
0.000292015
0.388764
0.000258107
0.387664
0.00022751
0.386596
0.000199809
0.385559
0.000174921
0.38455
0.000152686
0.38357
0.000132614
0.382616
0.000115151
0.381687
9.90948e-05
0.380782
8.56997e-05
0.379897
7.3007e-05
0.379031
6.29637e-05
0.378183
5.30614e-05
0.377353
4.57853e-05
0.376541
3.80989e-05
0.375747
3.29656e-05
0.374971
2.73568e-05
0.374211
2.31933e-05
0.373467
2.01033e-05
0.372738
1.62238e-05
0.372022
1.43842e-05
0.371318
1.24172e-05
0.370627
9.91347e-06
0.369948
9.30519e-06
0.369281
7.99911e-06
0.368627
6.90526e-06
0.367985
5.92244e-06
0.367354
5.98738e-06
0.366733
5.18494e-06
0.366123
4.37085e-06
0.365521
4.38049e-06
0.364929
4.28885e-06
0.364345
3.87133e-06
0.363769
3.25918e-06
0.363201
3.16678e-06
0.362641
3.21875e-06
0.362089
2.99246e-06
0.361544
2.55493e-06
0.361007
2.25321e-06
0.36048
2.04292e-06
0.359963
1.64036e-06
0.359457
1.07588e-06
0.358958
5.90985e-07
0.358459
3.0392e-07
0.357946
-1.54082e-07
0.35741
-1.13072e-06
0.356879
-2.74882e-06
0.356404
-4.51715e-06
0.35597
-5.75554e-06
0.355941
-6.8821e-06
0.356575
-7.57673e-06
0.358668
-8.96465e-06
0.363608
-1.05549e-05
0.373608
-1.25005e-05
0.391887
-1.43493e-05
0.422683
-1.6131e-05
0.470713
-1.81121e-05
0.538982
-2.06311e-05
0.623883
-2.29661e-05
0.710366
-2.42874e-05
0.775246
-2.37134e-05
0.810327
-2.07059e-05
0.81906
-1.63168e-05
0.819236
-1.51653e-05
0.817457
-1.44231e-05
0.815207
-1.30231e-05
0.81268
-1.17623e-05
0.810197
-1.05333e-05
0.807956
-9.53481e-06
0.805886
-8.80173e-06
0.804008
-8.20512e-06
0.802349
-7.73853e-06
0.800824
-7.37482e-06
0.799332
-7.07844e-06
0.797808
-6.8213e-06
0.796238
-6.58994e-06
0.794643
-6.37972e-06
0.793055
-6.19135e-06
0.7915
-6.02789e-06
0.789988
-5.8867e-06
0.78852
-5.7648e-06
0.787087
-5.66089e-06
0.785677
-5.57242e-06
0.784279
-5.50071e-06
0.782888
-5.44328e-06
0.781506
-5.39614e-06
0.780143
-5.35738e-06
0.778811
-5.32603e-06
0.777521
-5.30117e-06
0.776268
-5.28183e-06
0.774995
-5.26505e-06
0.7735
-5.24992e-06
0.771238
-5.23595e-06
0.766696
-5.21605e-06
0.755287
-5.16201e-06
-5.00239e-06
0.00914591
0.14444
0.0197291
0.143966
0.033643
0.14307
0.05025
0.14189
0.069249
0.140452
0.0901218
0.138799
0.11224
0.136971
0.135009
0.135009
0.157942
0.132949
0.180688
0.130823
0.203008
0.128656
0.224726
0.126464
0.245684
0.124253
0.26574
0.122023
0.284824
0.119767
0.302987
0.117476
0.320398
0.115155
0.337286
0.112846
0.353943
0.110417
0.370814
0.107951
0.388539
0.105453
0.407652
0.102819
0.429377
0.100425
0.455556
0.0976837
0.486411
0.0952429
0.525633
0.0920963
0.577527
0.0890148
0.64935
0.0862477
0.754021
0.0840159
0.918356
0.0837604
1.18815
0.0869049
1.5781
0.104061
1.67806
0.100459
0.943431
0.0601289
0.461564
0.0214062
0.431022
0.0143024
0.427849
0.0127557
0.423743
0.0116516
0.419594
0.0106094
0.417237
0.00967672
0.416344
0.00887247
0.416267
0.00817714
0.41657
0.00756772
0.417357
0.00700536
0.418417
0.00649076
0.419519
0.00602079
0.420517
0.00559108
0.421248
0.00519715
0.421493
0.00483346
0.421449
0.00448495
0.420859
0.00419176
0.419806
0.00392458
0.418394
0.00367183
0.416715
0.00342809
0.414909
0.00320843
0.412986
0.00301038
0.410875
0.00280506
0.408768
0.00262416
0.406775
0.00245283
0.404915
0.00228782
0.403178
0.00213157
0.40155
0.00198412
0.400012
0.00184483
0.398548
0.00171316
0.397146
0.00158877
0.395797
0.00147142
0.394495
0.00136082
0.393237
0.00125661
0.392018
0.00115858
0.390835
0.00106633
0.389687
0.000979787
0.388572
0.000898486
0.38749
0.000822435
0.386437
0.000751207
0.385414
0.000684708
0.38442
0.000622786
0.383453
0.000564928
0.382511
0.0005116
0.381593
0.000461557
0.380697
0.000416078
0.379822
0.00037312
0.378965
0.000334716
0.378125
0.000298171
0.377302
0.000266154
0.376496
0.000235348
0.375707
0.000208925
0.374937
0.0001836
0.374182
0.00016137
0.373442
0.000141754
0.372716
0.000122789
0.372003
0.00010735
0.371303
9.30687e-05
0.370614
7.9526e-05
0.369937
6.91071e-05
0.369272
5.90422e-05
0.368619
5.02464e-05
0.367978
4.25096e-05
0.367349
3.6681e-05
0.366729
3.07258e-05
0.366119
2.55073e-05
0.365518
2.1754e-05
0.364926
1.84653e-05
0.364343
1.53386e-05
0.363767
1.24739e-05
0.3632
1.05318e-05
0.36264
9.04996e-06
0.362088
7.55638e-06
0.361543
6.08188e-06
0.361006
4.93209e-06
0.360479
4.03063e-06
0.359963
3.08836e-06
0.359456
2.12386e-06
0.358957
1.33677e-06
0.358458
7.91184e-07
0.357945
1.54775e-07
0.357409
-8.85169e-07
0.356877
-2.44878e-06
0.356403
-4.17802e-06
0.355968
-5.3457e-06
0.35594
-6.49658e-06
0.356574
-7.08039e-06
0.358667
-8.23174e-06
0.363607
-9.83698e-06
0.373607
-1.17422e-05
0.391886
-1.37623e-05
0.422682
-1.57703e-05
0.470712
-1.70452e-05
0.538981
-1.8317e-05
0.623883
-1.95352e-05
0.710367
-2.05582e-05
0.775247
-2.01677e-05
0.810329
-1.83113e-05
0.819062
-1.53591e-05
0.819238
-1.45345e-05
0.817459
-1.38808e-05
0.815208
-1.26472e-05
0.812681
-1.15466e-05
0.810198
-1.04554e-05
0.807957
-9.54993e-06
0.805886
-8.86378e-06
0.804009
-8.28569e-06
0.802349
-7.82013e-06
0.800824
-7.45016e-06
0.799333
-7.14511e-06
0.797808
-6.87825e-06
0.796238
-6.63663e-06
0.794643
-6.41731e-06
0.793056
-6.22164e-06
0.7915
-6.04973e-06
0.789988
-5.89921e-06
0.78852
-5.76892e-06
0.787087
-5.65758e-06
0.785677
-5.56326e-06
0.784279
-5.48452e-06
0.782888
-5.41911e-06
0.781506
-5.36512e-06
0.780143
-5.32057e-06
0.778811
-5.28362e-06
0.777521
-5.25244e-06
0.776268
-5.22504e-06
0.774995
-5.19946e-06
0.7735
-5.17572e-06
0.771238
-5.15232e-06
0.766696
-5.11939e-06
0.755287
-5.0532e-06
-4.88643e-06
0.00825155
0.168977
0.0193455
0.168294
0.0330222
0.167277
0.0493903
0.165926
0.0681217
0.16426
0.088697
0.162338
0.1105
0.160215
0.132949
0.157942
0.155566
0.155566
0.178006
0.153127
0.200031
0.150657
0.22146
0.148175
0.242126
0.145688
0.261888
0.143195
0.280683
0.140681
0.298557
0.138148
0.315674
0.135598
0.332269
0.133074
0.348633
0.130427
0.365238
0.1277
0.382651
0.125029
0.401527
0.122187
0.422899
0.119672
0.44861
0.116771
0.479192
0.114245
0.517853
0.111138
0.569195
0.107966
0.640872
0.105381
0.745966
0.10392
0.912867
0.105247
1.19498
0.115632
1.57503
0.135936
1.63989
0.137366
0.874706
0.0768571
0.452299
0.0292236
0.428265
0.0211394
0.425239
0.0190971
0.421096
0.0175826
0.417151
0.0161471
0.415027
0.01487
0.414308
0.0137733
0.414297
0.0128232
0.414729
0.0119716
0.415601
0.0111882
0.416724
0.0104698
0.417894
0.00981175
0.418957
0.00920787
0.419747
0.00865238
0.42009
0.00813758
0.420068
0.00766188
0.419532
0.00721416
0.418555
0.00682767
0.417199
0.00646572
0.415572
0.0061181
0.413831
0.00580761
0.411959
0.00551131
0.409898
0.00521533
0.407835
0.00494357
0.405884
0.00468724
0.404067
0.00443873
0.402372
0.00420017
0.400783
0.00397211
0.399283
0.00375429
0.397855
0.00354611
0.396487
0.00334713
0.395172
0.00315702
0.393904
0.00297544
0.392677
0.00280198
0.391488
0.00263637
0.390335
0.00247816
0.389215
0.00232722
0.388128
0.00218308
0.387071
0.00204571
0.386044
0.00191466
0.385046
0.00178983
0.384075
0.00167108
0.38313
0.00155787
0.38221
0.00145069
0.381313
0.0013483
0.380437
0.00125198
0.379581
0.00115969
0.378742
0.00107353
0.377919
0.000990719
0.377112
0.000914083
0.376321
0.000840158
0.375548
0.000772269
0.374791
0.000707033
0.374049
0.000646524
0.373322
0.000590259
0.372608
0.000536273
0.371905
0.000487493
0.371215
0.000441493
0.370535
0.000397905
0.369867
0.000359101
0.369209
0.000322267
0.368564
0.000288348
0.36793
0.000257102
0.367306
0.000229343
0.366692
0.000203004
0.366087
0.000178957
0.36549
0.000157855
0.364902
0.000138646
0.364322