/*--------------------------------*- C++ -*----------------------------------*\
  =========                 |
  \\      /  F ield         | OpenFOAM: The Open Source CFD Toolbox
   \\    /   O peration     | Website:  https://openfoam.org
    \\  /    A nd           | Version:  13
     \\/     M anipulation  |
\*---------------------------------------------------------------------------*/
FoamFile
{
    format      ascii;
    class       volScalarField;
    location    "0.0014";
    object      Qdot;
}
// * * * * * * * * * * * * * * * * * * * * * * * * * * * * * * * * * * * * * //

dimensions      [1 -1 -3 0 0 0 0];

internalField   nonuniform List<scalar> 
33334
(
0.0710159
0.0726806
0.0776622
0.0875177
0.10539
0.136631
0.193425
0.299831
0.508402
0.938479
1.86908
3.97028
8.8806
20.6602
49.473
120.951
300.048
751.709
1896.43
4817.93
12358.3
32121.8
85008.2
231057
652129
1.92158e+06
5.97258e+06
2.02433e+07
8.01589e+07
4.16409e+08
3.15049e+09
4.17792e+10
2.41924e+11
2.49055e+10
2.17972e+09
1.14959e+09
8.52083e+08
6.49358e+08
5.03928e+08
3.99158e+08
3.21923e+08
2.6343e+08
2.18167e+08
1.82612e+08
1.54448e+08
1.31876e+08
1.13674e+08
9.89725e+07
8.71367e+07
7.75961e+07
6.99112e+07
6.36962e+07
5.86327e+07
5.44447e+07
5.09041e+07
4.78418e+07
4.52304e+07
4.29884e+07
4.09565e+07
3.9074e+07
3.73194e+07
3.56831e+07
3.41583e+07
3.27383e+07
3.14158e+07
3.01835e+07
2.90342e+07
2.79609e+07
2.69571e+07
2.60166e+07
2.51339e+07
2.4304e+07
2.35223e+07
2.27847e+07
2.20877e+07
2.1428e+07
2.08028e+07
2.02095e+07
1.96459e+07
1.91099e+07
1.86e+07
1.81146e+07
1.76522e+07
1.72113e+07
1.67903e+07
1.63878e+07
1.60024e+07
1.56331e+07
1.52791e+07
1.49396e+07
1.46138e+07
1.4301e+07
1.40005e+07
1.37116e+07
1.34336e+07
1.31659e+07
1.29078e+07
1.2659e+07
1.24189e+07
1.21874e+07
1.19639e+07
1.17482e+07
1.15399e+07
1.13385e+07
1.11438e+07
1.09556e+07
1.07736e+07
1.05975e+07
1.04268e+07
1.02606e+07
1.00979e+07
9.93832e+06
9.78265e+06
9.6333e+06
9.49377e+06
9.36671e+06
9.2494e+06
9.12973e+06
8.98378e+06
8.78066e+06
8.40708e+06
7.7063e+06
6.47616e+06
4.64448e+06
2.54853e+06
917878
178677
15495.5
568.739
12.5828
0.388896
0.0397587
0.0150261
0.0112393
0.0107133
0.010643
0.0107154
0.010872
0.0109853
0.0109702
0.0108906
0.0107325
0.0105089
0.0102668
0.0100477
0.00996902
0.00987576
0.00975333
0.00958803
0.00947083
0.00939792
0.00927005
0.00914029
0.00906258
0.00889142
0.00882834
0.00872485
0.00862961
0.00854054
0.0084555
0.00837135
0.00832822
0.00819836
0.00794694
0.00733837
0.00603292
0.0726806
0.0743302
0.0796628
0.089835
0.107754
0.139936
0.197467
0.305634
0.518028
0.955508
1.90053
4.03098
9.00537
20.9242
50.0434
122.2
302.791
757.723
1909.52
4846.16
12418.7
32250.1
85286.9
231661
653430
1.92448e+06
5.97955e+06
2.02628e+07
8.02297e+07
4.16757e+08
3.15271e+09
4.17893e+10
2.41732e+11
2.48833e+10
2.17964e+09
1.1496e+09
8.52082e+08
6.49357e+08
5.03927e+08
3.99157e+08
3.21922e+08
2.6343e+08
2.18166e+08
1.82611e+08
1.54447e+08
1.31875e+08
1.13673e+08
9.89715e+07
8.71353e+07
7.75956e+07
6.99103e+07
6.36953e+07
5.86318e+07
5.44438e+07
5.09033e+07
4.78411e+07
4.52297e+07
4.29877e+07
4.09559e+07
3.90733e+07
3.73187e+07
3.56825e+07
3.41578e+07
3.27377e+07
3.14152e+07
3.0183e+07
2.90337e+07
2.79604e+07
2.69566e+07
2.60161e+07
2.51334e+07
2.43035e+07
2.35218e+07
2.27843e+07
2.20873e+07
2.14276e+07
2.08024e+07
2.02091e+07
1.96455e+07
1.91096e+07
1.85997e+07
1.81143e+07
1.76519e+07
1.7211e+07
1.679e+07
1.63875e+07
1.60021e+07
1.56328e+07
1.52788e+07
1.49393e+07
1.46135e+07
1.43007e+07
1.40002e+07
1.37113e+07
1.34333e+07
1.31656e+07
1.29076e+07
1.26587e+07
1.24187e+07
1.21871e+07
1.19637e+07
1.1748e+07
1.15396e+07
1.13383e+07
1.11436e+07
1.09554e+07
1.07734e+07
1.05973e+07
1.04266e+07
1.02604e+07
1.00977e+07
9.93813e+06
9.78247e+06
9.63312e+06
9.49359e+06
9.36651e+06
9.24917e+06
9.12949e+06
8.9838e+06
8.78051e+06
8.40747e+06
7.70728e+06
6.47785e+06
4.64657e+06
2.55033e+06
918840
178928
15521.3
569.705
12.6012
0.389328
0.0397769
0.015027
0.0112387
0.0107123
0.010642
0.0107143
0.010871
0.0109843
0.0109692
0.0108896
0.0107316
0.010508
0.010266
0.0100469
0.00996825
0.009875
0.0097526
0.00958731
0.00947014
0.00939725
0.00926941
0.00913967
0.00906199
0.00889086
0.0088278
0.00872433
0.00862911
0.00854007
0.00845505
0.00837092
0.00832782
0.008198
0.00794663
0.00733814
0.00603277
0.0776622
0.0796628
0.0850783
0.0956509
0.114953
0.14855
0.209732
0.323595
0.546909
1.00516
1.99448
4.2192
9.39787
21.7752
51.9349
126.47
312.527
780.007
1960.56
4963.22
12687.9
32871.9
86750.2
235175
662063
1.94655e+06
6.03911e+06
2.04403e+07
8.08586e+07
4.19689e+08
3.17165e+09
4.19427e+10
2.40989e+11
2.473e+10
2.17734e+09
1.14938e+09
8.51958e+08
6.4928e+08
5.03882e+08
3.99129e+08
3.21905e+08
2.63419e+08
2.18158e+08
1.82606e+08
1.54443e+08
1.31872e+08
1.13671e+08
9.89698e+07
8.71339e+07
7.75944e+07
6.99092e+07
6.36943e+07
5.86308e+07
5.44429e+07
5.09024e+07
4.78402e+07
4.52288e+07
4.29868e+07
4.0955e+07
3.90725e+07
3.73179e+07
3.56817e+07
3.4157e+07
3.2737e+07
3.14145e+07
3.01822e+07
2.90329e+07
2.79597e+07
2.69559e+07
2.60154e+07
2.51327e+07
2.43028e+07
2.35212e+07
2.27837e+07
2.20867e+07
2.1427e+07
2.08018e+07
2.02085e+07
1.96449e+07
1.9109e+07
1.85991e+07
1.81137e+07
1.76513e+07
1.72104e+07
1.67895e+07
1.63869e+07
1.60016e+07
1.56323e+07
1.52783e+07
1.49388e+07
1.4613e+07
1.43002e+07
1.39997e+07
1.37108e+07
1.34329e+07
1.31651e+07
1.29071e+07
1.26582e+07
1.24182e+07
1.21867e+07
1.19633e+07
1.17475e+07
1.15392e+07
1.13378e+07
1.11432e+07
1.0955e+07
1.07729e+07
1.05969e+07
1.04262e+07
1.026e+07
1.00973e+07
9.93775e+06
9.78207e+06
9.63271e+06
9.49321e+06
9.36614e+06
9.24876e+06
9.12907e+06
8.98356e+06
8.78034e+06
8.40766e+06
7.70811e+06
6.47962e+06
4.64918e+06
2.55293e+06
920304
179330
15566.7
571.61
12.6396
0.390123
0.0398172
0.0150304
0.0112378
0.010711
0.0106406
0.0107128
0.0108694
0.0109828
0.0109678
0.0108883
0.0107303
0.0105069
0.0102649
0.0100458
0.00996719
0.00987398
0.00975161
0.00958636
0.00946923
0.00939638
0.00926858
0.00913889
0.00906125
0.00889015
0.00882714
0.00872371
0.00862854
0.00853954
0.00845456
0.00837049
0.00832743
0.00819768
0.00794638
0.00733796
0.00603268
0.0875177
0.089835
0.0956509
0.107213
0.128721
0.165816
0.233328
0.358519
0.602546
1.10286
2.17788
4.58607
10.1679
23.4525
55.6843
135.003
332.172
825.544
2066.54
5211.04
13271.8
34260
90118.3
243581
683735
2.00506e+06
6.20639e+06
2.09669e+07
8.2805e+07
4.28988e+08
3.23339e+09
4.25171e+10
2.39242e+11
2.42412e+10
2.16721e+09
1.14784e+09
8.51043e+08
6.48679e+08
5.03496e+08
3.98878e+08
3.21739e+08
2.63308e+08
2.18081e+08
1.82555e+08
1.54408e+08
1.31848e+08
1.13654e+08
9.89579e+07
8.71252e+07
7.75883e+07
6.99048e+07
6.36911e+07
5.86284e+07
5.44409e+07
5.09008e+07
4.78389e+07
4.52278e+07
4.29859e+07
4.09542e+07
3.90717e+07
3.73172e+07
3.5681e+07
3.41563e+07
3.27363e+07
3.14139e+07
3.01816e+07
2.90323e+07
2.79591e+07
2.69553e+07
2.60149e+07
2.51322e+07
2.43023e+07
2.35206e+07
2.27831e+07
2.20862e+07
2.14265e+07
2.08013e+07
2.0208e+07
1.96444e+07
1.91085e+07
1.85986e+07
1.81132e+07
1.76508e+07
1.72099e+07
1.6789e+07
1.63865e+07
1.60011e+07
1.56318e+07
1.52778e+07
1.49383e+07
1.46125e+07
1.42997e+07
1.39992e+07
1.37104e+07
1.34324e+07
1.31647e+07
1.29067e+07
1.26578e+07
1.24178e+07
1.21863e+07
1.19628e+07
1.17471e+07
1.15388e+07
1.13374e+07
1.11428e+07
1.09545e+07
1.07725e+07
1.05965e+07
1.04258e+07
1.02596e+07
1.00969e+07
9.93736e+06
9.78169e+06
9.63232e+06
9.4928e+06
9.36574e+06
9.24837e+06
9.12869e+06
8.98326e+06
8.78017e+06
8.40781e+06
7.70886e+06
6.48119e+06
4.65142e+06
2.55504e+06
921526
179689
15608.6
573.39
12.6763
0.390926
0.0398541
0.0150336
0.0112371
0.01071
0.0106394
0.0107116
0.0108682
0.0109816
0.0109667
0.0108873
0.0107294
0.010506
0.0102641
0.0100451
0.0100165
0.00987328
0.00975094
0.00958574
0.00946865
0.00939585
0.00926809
0.00913843
0.00906083
0.00888978
0.0088268
0.00872341
0.00862827
0.00853931
0.00845437
0.00837032
0.0083273
0.00819758
0.00794631
0.00733793
0.00603269
0.10539
0.107754
0.114953
0.128721
0.153195
0.197055
0.275463
0.420731
0.702986
1.27788
2.50634
5.2421
11.5442
26.4502
62.3955
150.322
367.604
908.203
2260.54
5669.66
14367
36907.8
96659.6
260268
727948
2.12779e+06
6.56755e+06
2.2133e+07
8.71902e+07
4.50078e+08
3.37525e+09
4.3949e+10
2.35947e+11
2.3154e+10
2.13952e+09
1.14253e+09
8.4771e+08
6.4639e+08
5.01935e+08
3.97795e+08
3.20974e+08
2.62763e+08
2.17679e+08
1.82264e+08
1.54195e+08
1.3169e+08
1.13537e+08
9.88696e+07
8.70581e+07
7.75387e+07
6.98661e+07
6.36612e+07
5.86054e+07
5.44232e+07
5.08871e+07
4.78279e+07
4.52195e+07
4.29794e+07
4.09492e+07
3.90678e+07
3.73142e+07
3.56786e+07
3.41545e+07
3.27349e+07
3.14127e+07
3.01807e+07
2.90316e+07
2.79585e+07
2.69548e+07
2.60144e+07
2.51318e+07
2.43019e+07
2.35203e+07
2.27828e+07
2.20858e+07
2.14262e+07
2.0801e+07
2.02077e+07
1.96441e+07
1.91082e+07
1.85983e+07
1.81129e+07
1.76505e+07
1.72096e+07
1.67887e+07
1.63862e+07
1.60008e+07
1.56315e+07
1.52775e+07
1.4938e+07
1.46122e+07
1.42994e+07
1.3999e+07
1.37101e+07
1.34321e+07
1.31644e+07
1.29064e+07
1.26575e+07
1.24175e+07
1.2186e+07
1.19625e+07
1.17468e+07
1.15385e+07
1.13371e+07
1.11425e+07
1.09543e+07
1.07723e+07
1.05962e+07
1.04255e+07
1.02593e+07
1.00967e+07
9.93709e+06
9.78143e+06
9.63205e+06
9.49251e+06
9.36544e+06
9.24809e+06
9.12842e+06
8.98301e+06
8.78002e+06
8.40782e+06
7.70916e+06
6.48188e+06
4.65246e+06
2.5561e+06
922170
179883
15632.2
574.43
12.6983
0.39139
0.0398776
0.0150359
0.0112368
0.0107095
0.0106388
0.010711
0.0108676
0.0109811
0.0109662
0.0108868
0.0107289
0.0105056
0.0102637
0.0100447
0.0100162
0.00987298
0.00975067
0.00958549
0.00946843
0.00939565
0.00926791
0.00913828
0.0090607
0.00888966
0.0088267
0.00872332
0.00862821
0.00853925
0.00845432
0.00837029
0.00832728
0.00819757
0.00794631
0.00733794
0.00603271
0.136631
0.139936
0.14855
0.165816
0.197055
0.251568
0.349369
0.530096
0.878107
1.58221
3.0753
6.37203
13.906
31.5769
73.8431
176.408
427.919
1049.06
2592.01
6456.5
16257.5
41517.5
108163
289947
807624
2.35184e+06
7.23504e+06
2.43061e+07
9.53934e+07
4.89393e+08
3.64217e+09
4.68271e+10
2.30088e+11
2.1278e+10
2.08487e+09
1.13075e+09
8.40081e+08
6.40995e+08
4.98113e+08
3.95044e+08
3.18951e+08
2.61255e+08
2.16526e+08
1.81391e+08
1.53522e+08
1.31165e+08
1.13125e+08
9.85448e+07
8.67982e+07
7.73334e+07
6.96983e+07
6.35241e+07
5.84927e+07
5.43304e+07
5.08105e+07
4.77631e+07
4.51669e+07
4.29352e+07
4.09124e+07
3.90375e+07
3.72892e+07
3.56581e+07
3.41377e+07
3.27212e+07
3.14016e+07
3.01717e+07
2.90244e+07
2.79527e+07
2.69502e+07
2.60107e+07
2.51288e+07
2.42996e+07
2.35185e+07
2.27814e+07
2.20847e+07
2.14253e+07
2.08003e+07
2.02071e+07
1.96436e+07
1.91078e+07
1.8598e+07
1.81126e+07
1.76503e+07
1.72094e+07
1.67885e+07
1.6386e+07
1.60007e+07
1.56314e+07
1.52774e+07
1.49379e+07
1.46121e+07
1.42993e+07
1.39988e+07
1.371e+07
1.3432e+07
1.31643e+07
1.29062e+07
1.26574e+07
1.24174e+07
1.21858e+07
1.19624e+07
1.17467e+07
1.15383e+07
1.1337e+07
1.11423e+07
1.09541e+07
1.07721e+07
1.0596e+07
1.04254e+07
1.02592e+07
1.00965e+07
9.93694e+06
9.78129e+06
9.63192e+06
9.49237e+06
9.36529e+06
9.24794e+06
9.12828e+06
8.98287e+06
8.77992e+06
8.40779e+06
7.70922e+06
6.48207e+06
4.65277e+06
2.55643e+06
922389
179952
15640.7
574.819
12.7071
0.391561
0.0398885
0.015037
0.0112368
0.0107093
0.0106386
0.0107108
0.0108674
0.0109809
0.010966
0.0108866
0.0107288
0.0105055
0.0102636
0.0100446
0.0100161
0.0098729
0.0097506
0.00958543
0.00946838
0.00939561
0.00926788
0.00913825
0.00906068
0.00888965
0.00882669
0.00872332
0.0086282
0.00853925
0.00845432
0.00837029
0.00832728
0.00819757
0.00794631
0.00733795
0.00603273
0.193425
0.197467
0.209732
0.233328
0.275463
0.349369
0.481332
0.722922
1.18545
2.11264
4.05794
8.31137
17.928
40.247
93.0801
220.013
528.313
1282.8
3140.99
7758.83
19388.9
49174.5
127344
339616
941438
2.72927e+06
8.36152e+06
2.79624e+07
1.09146e+08
5.55514e+08
4.09677e+09
5.1881e+10
2.20473e+11
1.85852e+10
1.99766e+09
1.11062e+09
8.26769e+08
6.31421e+08
4.91188e+08
3.89951e+08
3.15127e+08
2.58329e+08
2.14249e+08
1.79612e+08
1.52106e+08
1.3003e+08
1.12208e+08
9.7797e+07
8.61803e+07
7.68247e+07
6.92693e+07
6.31599e+07
5.81813e+07
5.40633e+07
5.05796e+07
4.75596e+07
4.49938e+07
4.27827e+07
4.07791e+07
3.89215e+07
3.71884e+07
3.55707e+07
3.4062e+07
3.26558e+07
3.13452e+07
3.01232e+07
2.89828e+07
2.79171e+07
2.69198e+07
2.59849e+07
2.5107e+07
2.42811e+07
2.35029e+07
2.27684e+07
2.20739e+07
2.14163e+07
2.07928e+07
2.0201e+07
1.96386e+07
1.91037e+07
1.85947e+07
1.81099e+07
1.76481e+07
1.72077e+07
1.67871e+07
1.63849e+07
1.59998e+07
1.56307e+07
1.52768e+07
1.49374e+07
1.46117e+07
1.4299e+07
1.39986e+07
1.37098e+07
1.34319e+07
1.31642e+07
1.29061e+07
1.26573e+07
1.24173e+07
1.21858e+07
1.19623e+07
1.17466e+07
1.15383e+07
1.13369e+07
1.11423e+07
1.09541e+07
1.07721e+07
1.0596e+07
1.04253e+07
1.02591e+07
1.00965e+07
9.93688e+06
9.78122e+06
9.63185e+06
9.49232e+06
9.36524e+06
9.24788e+06
9.12822e+06
8.9828e+06
8.77987e+06
8.40775e+06
7.70922e+06
6.48211e+06
4.65284e+06
2.55651e+06
922438
179966
15642.5
574.912
12.7096
0.391678
0.0398928
0.0150376
0.0112368
0.0107093
0.0106386
0.0107108
0.0108673
0.0109808
0.010966
0.0108866
0.0107288
0.0105054
0.0102636
0.0100446
0.0100161
0.0098729
0.0097506
0.00958543
0.00946837
0.00939561
0.00926787
0.00913825
0.00906068
0.00888965
0.00882669
0.00872332
0.0086282
0.00853925
0.00845432
0.00837029
0.00832728
0.00819757
0.00794632
0.00733795
0.00603274
0.299831
0.305634
0.323595
0.358519
0.420731
0.530096
0.722922
1.07399
1.73919
3.05845
5.79394
11.699
24.8786
55.0769
125.67
293.241
695.614
1669.69
4044.5
9892.05
24499.7
61646.8
158553
420255
1.15787e+06
3.33713e+06
1.01677e+07
3.37746e+07
1.30886e+08
6.61335e+08
4.84104e+09
6.00142e+10
2.06057e+11
1.53133e+10
1.87329e+09
1.0812e+09
8.07036e+08
6.17081e+08
4.80704e+08
3.82148e+08
3.09188e+08
2.5372e+08
2.10625e+08
1.76726e+08
1.4977e+08
1.28123e+08
1.1064e+08
9.64957e+07
8.50843e+07
7.58997e+07
6.84749e+07
6.24704e+07
5.75781e+07
5.35334e+07
5.01066e+07
4.7135e+07
4.46203e+07
4.24454e+07
4.04751e+07
3.86483e+07
3.69432e+07
3.53506e+07
3.38644e+07
3.24787e+07
3.11865e+07
2.99812e+07
2.88557e+07
2.78036e+07
2.68186e+07
2.58947e+07
2.50268e+07
2.421e+07
2.34399e+07
2.27127e+07
2.20247e+07
2.13731e+07
2.07549e+07
2.01678e+07
1.96097e+07
1.90785e+07
1.85729e+07
1.80911e+07
1.76319e+07
1.71938e+07
1.67752e+07
1.63748e+07
1.59912e+07
1.56235e+07
1.52708e+07
1.49324e+07
1.46075e+07
1.42955e+07
1.39957e+07
1.37074e+07
1.34299e+07
1.31626e+07
1.29049e+07
1.26563e+07
1.24165e+07
1.21851e+07
1.19618e+07
1.17462e+07
1.1538e+07
1.13367e+07
1.11421e+07
1.09539e+07
1.07719e+07
1.05959e+07
1.04252e+07
1.02591e+07
1.00964e+07
9.93683e+06
9.78117e+06
9.63181e+06
9.49228e+06
9.3652e+06
9.24784e+06
9.12818e+06
8.98277e+06
8.77983e+06
8.40771e+06
7.70919e+06
6.48209e+06
4.65283e+06
2.55651e+06
922437
179966
15642.6
574.924
12.71
0.391699
0.0398946
0.0150379
0.0112369
0.0107093
0.0106386
0.0107108
0.0108673
0.0109809
0.010966
0.0108866
0.0107288
0.0105054
0.0102636
0.0100446
0.0100161
0.0098729
0.0097506
0.00958543
0.00946838
0.00939561
0.00926788
0.00913826
0.00906069
0.00888966
0.0088267
0.00872332
0.00862821
0.00853926
0.00845433
0.0083703
0.00832729
0.00819758
0.00794632
0.00733796
0.00603276
0.508402
0.518028
0.546909
0.602546
0.702986
0.878107
1.18545
1.73919
2.77691
4.80944
8.96539
17.8046
37.2367
81.0928
182.117
418.583
978.872
2318.24
5545.24
13405.7
32854.3
81908.5
208982
549773
1.50268e+06
4.29627e+06
1.29925e+07
4.2809e+07
1.6451e+08
8.26384e+08
6.05266e+09
7.30318e+10
1.8236e+11
1.18784e+10
1.72489e+09
1.04264e+09
7.80745e+08
5.97861e+08
4.66554e+08
3.71538e+08
3.01058e+08
2.47342e+08
2.05558e+08
1.72647e+08
1.46441e+08
1.2538e+08
1.08359e+08
9.4581e+07
8.34547e+07
7.45019e+07
6.72579e+07
6.14018e+07
5.66322e+07
5.2689e+07
4.93389e+07
4.64399e+07
4.39942e+07
4.18722e+07
3.99495e+07
3.8167e+07
3.65027e+07
3.49471e+07
3.34948e+07
3.214e+07
3.08761e+07
2.96967e+07
2.8595e+07
2.75647e+07
2.65996e+07
2.56942e+07
2.48432e+07
2.4042e+07
2.32863e+07
2.25723e+07
2.18967e+07
2.12564e+07
2.06486e+07
2.00712e+07
1.9522e+07
1.89991e+07
1.8501e+07
1.80262e+07
1.75734e+07
1.71412e+07
1.6728e+07
1.63325e+07
1.59535e+07
1.55899e+07
1.52409e+07
1.49059e+07
1.45842e+07
1.4275e+07
1.39777e+07
1.36917e+07
1.34162e+07
1.31507e+07
1.28946e+07
1.26474e+07
1.24089e+07
1.21786e+07
1.19563e+07
1.17416e+07
1.1534e+07
1.13334e+07
1.11393e+07
1.09516e+07
1.077e+07
1.05943e+07
1.04239e+07
1.0258e+07
1.00955e+07
9.93612e+06
9.7806e+06
9.63134e+06
9.4919e+06
9.3649e+06
9.2476e+06
9.12799e+06
8.98262e+06
8.77971e+06
8.4076e+06
7.70908e+06
6.48199e+06
4.65274e+06
2.55644e+06
922407
179959
15642.1
574.914
12.7101
0.391707
0.0398955
0.0150381
0.0112369
0.0107094
0.0106386
0.0107108
0.0108674
0.0109809
0.010966
0.0108866
0.0107288
0.0105055
0.0102636
0.0100446
0.0100161
0.00987292
0.00975062
0.00958545
0.00946839
0.00939562
0.00926789
0.00913827
0.0090607
0.00888966
0.00882671
0.00872333
0.00862821
0.00853926
0.00845433
0.0083703
0.00832729
0.00819758
0.00794633
0.00733797
0.00603277
0.938479
0.955508
1.00516
1.10286
1.27788
1.58221
2.11264
3.05845
4.80944
8.18965
14.9942
29.2283
59.9873
128.226
282.81
638.914
1469.98
3428.26
8082.84
19279.1
46669.8
115087
290827
758147
2.0522e+06
5.80773e+06
1.73969e+07
5.68191e+07
2.16798e+08
1.08587e+09
8.06515e+09
9.33666e+10
1.4772e+11
8.73776e+09
1.56614e+09
9.95823e+08
7.48295e+08
5.74049e+08
4.48965e+08
3.58291e+08
2.90825e+08
2.39258e+08
1.99092e+08
1.67407e+08
1.42139e+08
1.21811e+08
1.0537e+08
9.20514e+07
8.12888e+07
7.26193e+07
6.5607e+07
5.99436e+07
5.5329e+07
5.15116e+07
4.8259e+07
4.54561e+07
4.30944e+07
4.10407e+07
3.91797e+07
3.74539e+07
3.58419e+07
3.43347e+07
3.29266e+07
3.16124e+07
3.03861e+07
2.92412e+07
2.81714e+07
2.71705e+07
2.62327e+07
2.53526e+07
2.45251e+07
2.37457e+07
2.30104e+07
2.23154e+07
2.16575e+07
2.10337e+07
2.04415e+07
1.98786e+07
1.9343e+07
1.88329e+07
1.83467e+07
1.78831e+07
1.74408e+07
1.70184e+07
1.66145e+07
1.62277e+07
1.58567e+07
1.55007e+07
1.51589e+07
1.48306e+07
1.45151e+07
1.42118e+07
1.39199e+07
1.3639e+07
1.33682e+07
1.31071e+07
1.28551e+07
1.26117e+07
1.23767e+07
1.21497e+07
1.19303e+07
1.17183e+07
1.15133e+07
1.13149e+07
1.1123e+07
1.09371e+07
1.07573e+07
1.05831e+07
1.0414e+07
1.02493e+07
1.0088e+07
9.92954e+06
9.77487e+06
9.62638e+06
9.48761e+06
9.36121e+06
9.24446e+06
9.12536e+06
8.98046e+06
8.77804e+06
8.40622e+06
7.70808e+06
6.48133e+06
4.65237e+06
2.55627e+06
922341
179946
15640.9
574.88
12.7098
0.391707
0.039896
0.0150382
0.011237
0.0107094
0.0106387
0.0107108
0.0108674
0.0109809
0.0109661
0.0108866
0.0107288
0.0105055
0.0102636
0.0100447
0.0100161
0.00987294
0.00975063
0.00958546
0.0094684
0.00939563
0.0092679
0.00913828
0.00906071
0.00888967
0.00882671
0.00872334
0.00862822
0.00853927
0.00845434
0.0083703
0.00832729
0.00819758
0.00794633
0.00733798
0.00603279
1.86908
1.90053
1.99448
2.17788
2.50634
3.0753
4.05794
5.79394
8.96539
14.9942
26.9274
51.4384
103.42
216.579
468.233
1037.78
2344.7
5374.97
12468.6
29291.3
69916
170233
425283
1.09674e+06
2.93658e+06
8.21578e+06
2.43361e+07
7.87815e+07
2.99427e+08
1.5015e+09
1.14982e+10
1.20934e+11
1.10013e+11
5.9699e+09
1.41171e+09
9.42229e+08
7.1054e+08
5.4631e+08
4.28423e+08
3.42742e+08
2.78735e+08
2.29667e+08
1.91383e+08
1.61129e+08
1.36961e+08
1.17495e+08
1.01734e+08
8.89569e+07
7.8623e+07
7.02901e+07
6.35544e+07
5.81112e+07
5.36832e+07
5.00153e+07
4.68789e+07
4.41914e+07
4.19264e+07
3.99538e+07
3.81664e+07
3.65081e+07
3.49585e+07
3.3509e+07
3.21542e+07
3.08891e+07
2.97082e+07
2.86053e+07
2.75745e+07
2.66098e+07
2.57056e+07
2.48568e+07
2.40585e+07
2.33064e+07
2.25967e+07
2.19257e+07
2.12903e+07
2.06877e+07
2.01154e+07
1.95713e+07
1.90534e+07
1.85599e+07
1.80895e+07
1.76409e+07
1.72127e+07
1.68037e+07
1.64124e+07
1.60375e+07
1.56779e+07
1.53327e+07
1.50011e+07
1.46825e+07
1.43762e+07
1.40816e+07
1.37981e+07
1.3525e+07
1.32617e+07
1.30077e+07
1.27624e+07
1.25254e+07
1.22964e+07
1.20751e+07
1.18611e+07
1.16542e+07
1.1454e+07
1.12602e+07
1.10724e+07
1.08906e+07
1.07145e+07
1.05438e+07
1.0378e+07
1.02164e+07
1.00579e+07
9.9022e+06
9.75006e+06
9.60394e+06
9.46739e+06
9.34308e+06
9.22836e+06
9.11131e+06
8.96834e+06
8.76813e+06
8.39789e+06
7.70183e+06
6.47722e+06
4.65019e+06
2.55543e+06
922136
179917
15639
574.828
12.7091
0.391701
0.0398962
0.0150384
0.011237
0.0107095
0.0106387
0.0107109
0.0108674
0.0109809
0.0109661
0.0108867
0.0107289
0.0105055
0.0102636
0.0100447
0.0100161
0.00987296
0.00975065
0.00958547
0.00946842
0.00939565
0.00926791
0.00913829
0.00906072
0.00888968
0.00882672
0.00872335
0.00862823
0.00853927
0.00845434
0.00837031
0.0083273
0.00819759
0.00794634
0.00733799
0.00603281
3.97028
4.03098
4.2192
4.58607
5.2421
6.37203
8.31137
11.699
17.8046
29.2283
51.4384
96.193
189.222
387.687
820.375
1781.08
3945.35
8875.63
20226.2
46733.2
109840
263668
650116
1.65607e+06
4.38053e+06
1.21016e+07
3.5416e+07
1.13772e+08
4.32765e+08
2.19189e+09
1.76709e+10
1.56202e+11
7.06586e+10
4.03495e+09
1.26898e+09
8.8353e+08
6.68616e+08
5.15494e+08
4.0555e+08
3.2534e+08
2.6514e+08
2.18849e+08
1.82657e+08
1.53996e+08
1.31057e+08
1.12553e+08
9.75548e+07
8.53835e+07
7.55304e+07
6.75792e+07
6.11531e+07
5.59555e+07
5.17366e+07
4.82356e+07
4.52316e+07
4.26752e+07
4.05155e+07
3.86348e+07
3.69302e+07
3.5348e+07
3.38686e+07
3.24841e+07
3.11895e+07
2.99802e+07
2.8851e+07
2.77961e+07
2.68099e+07
2.58866e+07
2.50211e+07
2.42084e+07
2.3444e+07
2.27236e+07
2.20436e+07
2.14006e+07
2.07916e+07
2.02139e+07
1.96652e+07
1.91433e+07
1.86464e+07
1.8173e+07
1.77215e+07
1.72908e+07
1.68797e+07
1.64869e+07
1.61111e+07
1.57509e+07
1.54054e+07
1.50736e+07
1.47547e+07
1.44483e+07
1.41537e+07
1.38702e+07
1.35973e+07
1.33344e+07
1.30808e+07
1.28361e+07
1.25997e+07
1.23713e+07
1.21504e+07
1.19369e+07
1.17305e+07
1.15307e+07
1.13373e+07
1.115e+07
1.09685e+07
1.07926e+07
1.06222e+07
1.0457e+07
1.02965e+07
1.014e+07
9.9864e+06
9.83542e+06
9.68792e+06
9.54632e+06
9.41417e+06
9.29416e+06
9.18377e+06
9.07122e+06
8.93254e+06
8.73757e+06
8.37172e+06
7.68139e+06
6.46304e+06
4.64212e+06
2.5521e+06
921294
179813
15633.9
574.735
12.7082
0.391692
0.0398963
0.0150384
0.0112371
0.0107095
0.0106387
0.0107109
0.0108675
0.010981
0.0109661
0.0108867
0.0107289
0.0105056
0.0102637
0.0100447
0.0100162
0.00987297
0.00975067
0.00958549
0.00946843
0.00939566
0.00926793
0.0091383
0.00906072
0.00888969
0.00882673
0.00872336
0.00862824
0.00853928
0.00845435
0.00837032
0.00832731
0.0081976
0.00794635
0.007338
0.00603282
8.8806
9.00537
9.39787
10.1679
11.5442
13.906
17.928
24.8786
37.2367
59.9873
103.42
189.222
363.919
728.855
1508.16
3203.94
6950.46
15326.6
34273
77810
179920
425326
1.03365e+06
2.59725e+06
6.77809e+06
1.84659e+07
5.33724e+07
1.70562e+08
6.54926e+08
3.39092e+09
2.90751e+10
1.86666e+11
3.84127e+10
2.78531e+09
1.14143e+09
8.21383e+08
6.23769e+08
4.82534e+08
3.81021e+08
3.06589e+08
2.50441e+08
2.07126e+08
1.73172e+08
1.46218e+08
1.246e+08
1.07132e+08
9.29545e+07
8.14366e+07
7.21033e+07
6.4565e+07
5.8473e+07
5.35438e+07
4.95476e+07
4.6223e+07
4.33663e+07
4.09508e+07
3.89048e+07
3.71211e+07
3.55054e+07
3.40054e+07
3.26017e+07
3.12874e+07
3.0058e+07
2.89091e+07
2.7836e+07
2.68333e+07
2.58957e+07
2.50177e+07
2.41945e+07
2.34214e+07
2.26941e+07
2.20086e+07
2.13614e+07
2.07493e+07
2.01695e+07
1.96194e+07
1.90968e+07
1.85997e+07
1.81263e+07
1.76753e+07
1.72451e+07
1.68346e+07
1.64428e+07
1.60683e+07
1.571e+07
1.53667e+07
1.50371e+07
1.47207e+07
1.44165e+07
1.41242e+07
1.38431e+07
1.35726e+07
1.33121e+07
1.30611e+07
1.28191e+07
1.25854e+07
1.23596e+07
1.21413e+07
1.19303e+07
1.17262e+07
1.15288e+07
1.13377e+07
1.11527e+07
1.09735e+07
1.07999e+07
1.06316e+07
1.04686e+07
1.03105e+07
1.01571e+07
1.00074e+07
9.86064e+06
9.71643e+06
9.57568e+06
9.44081e+06
9.31536e+06
9.20196e+06
9.09836e+06
8.99306e+06
8.86122e+06
8.67489e+06
8.31749e+06
7.6376e+06
6.43131e+06
4.62294e+06
2.54348e+06
918866
179471
15615.1
574.388
12.7056
0.391676
0.0398965
0.0150386
0.0112372
0.0107095
0.0106388
0.0107109
0.0108675
0.010981
0.0109662
0.0108867
0.0107289
0.0105056
0.0102637
0.0100447
0.0100162
0.00987299
0.00975068
0.0095855
0.00946844
0.00939567
0.00926794
0.00913831
0.00906073
0.0088897
0.00882674
0.00872336
0.00862825
0.00853929
0.00845436
0.00837033
0.00832732
0.0081976
0.00794635
0.00733801
0.00603284
20.6602
20.9242
21.7752
23.4525
26.4502
31.5769
40.247
55.0769
81.0928
128.226
216.579
387.687
728.855
1426.56
2885.47
5995.47
12730.2
27499
60303
134436
305605
710773
1.70044e+06
4.20928e+06
1.08251e+07
2.90833e+07
8.31675e+07
2.65772e+08
1.04205e+09
5.63515e+09
5.10867e+10
1.80679e+11
1.82462e+10
1.99932e+09
1.02855e+09
7.57342e+08
5.7723e+08
4.48353e+08
3.55503e+08
2.86998e+08
2.35043e+08
1.94816e+08
1.63186e+08
1.38008e+08
1.17767e+08
1.01381e+08
8.80611e+07
7.72267e+07
6.84377e+07
6.13328e+07
5.55909e+07
5.09452e+07
4.71788e+07
4.40367e+07
4.13387e+07
3.90661e+07
3.714e+07
3.54575e+07
3.39341e+07
3.25197e+07
3.11952e+07
2.99542e+07
2.87929e+07
2.77073e+07
2.6693e+07
2.57451e+07
2.48584e+07
2.40281e+07
2.32494e+07
2.2518e+07
2.18298e+07
2.11811e+07
2.05685e+07
1.99892e+07
1.94403e+07
1.89195e+07
1.84247e+07
1.79539e+07
1.75057e+07
1.70785e+07
1.6671e+07
1.62823e+07
1.59111e+07
1.55564e+07
1.5217e+07
1.48917e+07
1.45795e+07
1.42797e+07
1.39915e+07
1.37145e+07
1.34481e+07
1.31918e+07
1.2945e+07
1.27071e+07
1.24777e+07
1.22562e+07
1.20422e+07
1.18352e+07
1.16351e+07
1.14416e+07
1.12544e+07
1.10732e+07
1.08978e+07
1.07279e+07
1.05633e+07
1.04039e+07
1.02496e+07
1.01002e+07
9.95526e+06
9.81412e+06
9.67592e+06
9.54035e+06
9.40835e+06
9.2823e+06
9.16574e+06
9.06118e+06
8.96659e+06
8.87107e+06
8.74903e+06
8.57336e+06
8.22911e+06
7.5646e+06
6.37682e+06
4.58849e+06
2.52702e+06
913814
178671
15563.9
573.223
12.6938
0.39152
0.0398958
0.0150388
0.0112373
0.0107096
0.0106388
0.010711
0.0108675
0.010981
0.0109662
0.0108868
0.0107289
0.0105056
0.0102637
0.0100448
0.0100162
0.00987301
0.0097507
0.00958552
0.00946846
0.00939569
0.00926795
0.00913832
0.00906075
0.00888971
0.00882675
0.00872338
0.00862826
0.0085393
0.00845437
0.00837034
0.00832732
0.00819761
0.00794636
0.00733802
0.00603286
49.473
50.0434
51.9349
55.6843
62.3955
73.8431
93.0801
125.67
182.117
282.81
468.233
820.375
1508.16
2885.47
5706.15
11597.3
24100
50983.9
109593
239765
535426
1.2241e+06
2.88007e+06
7.01665e+06
1.77743e+07
4.71401e+07
1.33902e+08
4.31786e+08
1.75156e+09
1.02609e+10
9.31054e+10
1.23459e+11
8.34269e+09
1.5081e+09
9.27378e+08
6.92772e+08
5.30159e+08
4.13804e+08
3.2961e+08
2.67039e+08
2.19317e+08
1.82214e+08
1.52938e+08
1.29562e+08
1.10723e+08
9.54391e+07
8.29946e+07
7.28582e+07
6.46253e+07
5.79644e+07
5.25809e+07
4.82262e+07
4.46922e+07
4.17358e+07
3.92021e+07
3.70738e+07
3.52687e+07
3.36898e+07
3.22599e+07
3.09323e+07
2.96883e+07
2.85221e+07
2.74302e+07
2.64092e+07
2.54549e+07
2.45628e+07
2.37282e+07
2.29466e+07
2.22134e+07
2.15246e+07
2.08765e+07
2.02655e+07
1.96885e+07
1.91427e+07
1.86255e+07
1.81348e+07
1.76686e+07
1.7225e+07
1.68026e+07
1.63999e+07
1.60159e+07
1.56495e+07
1.52997e+07
1.49655e+07
1.46456e+07
1.43391e+07
1.40449e+07
1.37623e+07
1.34908e+07
1.32298e+07
1.29787e+07
1.27372e+07
1.25046e+07
1.22805e+07
1.20644e+07
1.18557e+07
1.1654e+07
1.1459e+07
1.12705e+07
1.10882e+07
1.09119e+07
1.07413e+07
1.05762e+07
1.04165e+07
1.0262e+07
1.01125e+07
9.96796e+06
9.82835e+06
9.69328e+06
9.5621e+06
9.43399e+06
9.3087e+06
9.1872e+06
9.07181e+06
8.96608e+06
8.87233e+06
8.78863e+06
8.70515e+06
8.59593e+06
8.43079e+06
8.10417e+06
7.45954e+06
6.29639e+06
4.53594e+06
2.50076e+06
905253
177198
15457.8
570.389
12.6574
0.391065
0.0398834
0.0150386
0.0112374
0.0107097
0.0106389
0.010711
0.0108676
0.0109811
0.0109662
0.0108868
0.010729
0.0105056
0.0102637
0.0100448
0.0100162
0.00987303
0.00975072
0.00958554
0.00946847
0.0093957
0.00926796
0.00913834
0.00906076
0.00888972
0.00882676
0.00872339
0.00862827
0.00853931
0.00845438
0.00837034
0.00832733
0.00819762
0.00794637
0.00733803
0.00603288
120.951
122.2
126.47
135.003
150.322
176.408
220.013
293.241
418.583
638.914
1037.78
1781.08
3203.94
5995.47
11597.3
23063.6
46912.1
97173.6
204655
439066
962338
2.16148e+06
5.00036e+06
1.19905e+07
2.99221e+07
7.8478e+07
2.23205e+08
7.36435e+08
3.1488e+09
2.1004e+10
1.51479e+11
5.9899e+10
3.89308e+09
1.21512e+09
8.34334e+08
6.28865e+08
4.83622e+08
3.79629e+08
3.03875e+08
2.47124e+08
2.03582e+08
1.69574e+08
1.42635e+08
1.21053e+08
1.03611e+08
8.94295e+07
7.78607e+07
6.84231e+07
6.0748e+07
5.45326e+07
4.95089e+07
4.54464e+07
4.21444e+07
3.93735e+07
3.70039e+07
3.502e+07
3.33355e+07
3.18604e+07
3.05237e+07
2.92825e+07
2.81189e+07
2.70272e+07
2.60047e+07
2.50481e+07
2.41538e+07
2.33176e+07
2.25351e+07
2.18021e+07
2.11145e+07
2.04685e+07
1.98604e+07
1.92872e+07
1.87458e+07
1.82336e+07
1.77483e+07
1.72878e+07
1.68502e+07
1.64338e+07
1.60373e+07
1.56594e+07
1.52989e+07
1.4955e+07
1.46267e+07
1.4313e+07
1.40128e+07
1.37251e+07
1.3449e+07
1.31839e+07
1.29291e+07
1.26842e+07
1.24487e+07
1.22221e+07
1.2004e+07
1.17937e+07
1.1591e+07
1.13953e+07
1.12061e+07
1.10233e+07
1.08466e+07
1.06758e+07
1.05108e+07
1.03512e+07
1.0197e+07
1.0048e+07
9.90413e+06
9.76528e+06
9.63147e+06
9.50262e+06
9.37844e+06
9.25835e+06
9.14157e+06
9.02787e+06
8.91826e+06
8.81495e+06
8.72153e+06
8.64015e+06
8.56872e+06
8.49879e+06
8.40417e+06
8.25076e+06
7.94305e+06
7.32165e+06
6.18856e+06
4.46371e+06
2.46344e+06
892525
174869
15275.7
564.933
12.575
0.389754
0.0398274
0.0150345
0.0112369
0.0107096
0.0106389
0.0107111
0.0108676
0.0109811
0.0109662
0.0108868
0.010729
0.0105057
0.0102638
0.0100448
0.0100162
0.00987305
0.00975074
0.00958556
0.00946849
0.00939572
0.00926798
0.00913835
0.00906077
0.00888974
0.00882677
0.0087234
0.00862828
0.00853932
0.00845439
0.00837036
0.00832734
0.00819763
0.00794638
0.00733805
0.0060329
300.048
302.791
312.527
332.172
367.604
427.919
528.313
695.614
978.872
1469.98
2344.7
3945.35
6950.46
12730.2
24100
46912.1
93402.9
189402
390697
821533
1.76623e+06
3.89844e+06
8.87788e+06
2.09825e+07
5.16608e+07
1.34695e+08
3.8765e+08
1.33717e+09
6.22126e+09
4.73777e+10
1.70832e+11
2.09226e+10
2.16286e+09
1.02854e+09
7.46964e+08
5.66786e+08
4.38533e+08
3.46432e+08
2.78738e+08
2.27593e+08
1.88105e+08
1.57107e+08