/*--------------------------------*- C++ -*----------------------------------*\
  =========                 |
  \\      /  F ield         | OpenFOAM: The Open Source CFD Toolbox
   \\    /   O peration     | Website:  https://openfoam.org
    \\  /    A nd           | Version:  13
     \\/     M anipulation  |
\*---------------------------------------------------------------------------*/
FoamFile
{
    format      ascii;
    class       volScalarField;
    location    "0.0014";
    object      rho;
}
// * * * * * * * * * * * * * * * * * * * * * * * * * * * * * * * * * * * * * //

dimensions      [1 -3 0 0 0 0 0];

internalField   nonuniform List<scalar> 
33334
(
1.13457
1.13106
1.12577
1.11824
1.10914
1.09878
1.08746
1.07569
1.06343
1.05087
1.03819
1.02551
1.0129
1.00047
0.988315
0.97658
0.965392
0.954891
0.945256
0.936709
0.929487
0.923825
0.92008
0.918723
0.920404
0.925348
0.934765
0.950353
0.975275
1.01438
1.07706
1.1838
1.28181
1.27399
1.04508
0.946048
0.931192
0.920965
0.910587
0.900568
0.89122
0.882406
0.874022
0.86601
0.858485
0.851448
0.84495
0.839116
0.834118
0.82999
0.826811
0.824523
0.823032
0.822184
0.821804
0.821745
0.822048
0.822659
0.823302
0.823881
0.82438
0.824814
0.825201
0.825557
0.825894
0.826221
0.826543
0.826864
0.827184
0.827503
0.827822
0.82814
0.828456
0.82877
0.82908
0.829386
0.829689
0.829986
0.83028
0.830571
0.830859
0.831147
0.831435
0.831723
0.832011
0.832295
0.832575
0.832852
0.833125
0.833397
0.833666
0.833935
0.834202
0.834468
0.834732
0.834993
0.83525
0.835503
0.835754
0.836001
0.836247
0.83649
0.836731
0.83697
0.837208
0.837442
0.837673
0.837901
0.838128
0.838357
0.838594
0.83884
0.839093
0.83933
0.839527
0.839673
0.839782
0.8399
0.840153
0.841026
0.843065
0.847752
0.857692
0.877233
0.912888
0.97355
1.06993
1.21158
1.39858
1.60933
1.7959
1.91672
1.97113
1.98087
1.98129
1.97939
1.97672
1.97365
1.97089
1.96863
1.9667
1.96521
1.96407
1.96308
1.96204
1.96085
1.95953
1.95816
1.95679
1.95547
1.95422
1.95302
1.95186
1.95072
1.94958
1.94844
1.94729
1.94614
1.945
1.94389
1.9428
1.94168
1.94022
1.93756
1.93102
1.91229
1.13106
1.12756
1.12227
1.11475
1.10564
1.09528
1.08409
1.07213
1.05977
1.04725
1.03464
1.02203
1.0095
0.997139
0.985072
0.973425
0.962329
0.95193
0.942403
0.933974
0.92688
0.921355
0.917778
0.916591
0.918433
0.923569
0.933198
0.949004
0.974143
1.01345
1.07633
1.18326
1.28149
1.27383
1.04506
0.946048
0.931191
0.920964
0.910587
0.900568
0.89122
0.882406
0.874022
0.86601
0.858485
0.851448
0.844951
0.839116
0.834118
0.829991
0.826812
0.824523
0.823033
0.822184
0.821805
0.821746
0.822049
0.82266
0.823303
0.823882
0.824382
0.824815
0.825202
0.825558
0.825896
0.826222
0.826545
0.826865
0.827185
0.827504
0.827823
0.828141
0.828457
0.828771
0.829081
0.829388
0.82969
0.829988
0.830282
0.830572
0.830861
0.831148
0.831437
0.831725
0.832012
0.832296
0.832577
0.832853
0.833127
0.833398
0.833668
0.833936
0.834204
0.83447
0.834733
0.834994
0.835251
0.835505
0.835755
0.836003
0.836248
0.836491
0.836732
0.836972
0.837209
0.837444
0.837675
0.837903
0.838129
0.838359
0.838595
0.838842
0.839094
0.839332
0.839528
0.839675
0.839783
0.8399
0.840155
0.841025
0.843065
0.847748
0.857683
0.877213
0.912853
0.973499
1.06986
1.21149
1.39848
1.60923
1.79583
1.91668
1.97112
1.98087
1.9813
1.97939
1.97672
1.97366
1.97089
1.96864
1.9667
1.96521
1.96408
1.96309
1.96204
1.96085
1.95954
1.95816
1.9568
1.95547
1.95422
1.95302
1.95187
1.95073
1.94959
1.94844
1.94729
1.94614
1.945
1.94389
1.9428
1.94168
1.94022
1.93756
1.93102
1.91229
1.12577
1.12227
1.11699
1.10951
1.10044
1.09013
1.07891
1.06699
1.05475
1.04231
1.02979
1.01726
1.00482
0.992559
0.980588
0.969041
0.958049
0.947757
0.938345
0.930037
0.92307
0.917672
0.914267
0.913261
0.915247
0.92057
0.930413
0.94645
0.971835
1.0114
1.07454
1.18183
1.28048
1.27312
1.04478
0.946004
0.931165
0.920944
0.910571
0.900557
0.891212
0.8824
0.874018
0.866007
0.858483
0.851447
0.84495
0.839116
0.834118
0.829991
0.826812
0.824524
0.823033
0.822185
0.821806
0.821747
0.82205
0.822661
0.823304
0.823883
0.824383
0.824817
0.825204
0.82556
0.825897
0.826224
0.826546
0.826867
0.827186
0.827506
0.827825
0.828143
0.828459
0.828773
0.829083
0.82939
0.829692
0.82999
0.830284
0.830574
0.830863
0.831151
0.831439
0.831727
0.832014
0.832298
0.832579
0.832855
0.833129
0.8334
0.83367
0.833939
0.834206
0.834472
0.834736
0.834996
0.835253
0.835507
0.835757
0.836005
0.83625
0.836493
0.836735
0.836974
0.837211
0.837446
0.837677
0.837905
0.838132
0.838361
0.838597
0.838844
0.839096
0.839334
0.839531
0.839677
0.839786
0.839902
0.840158
0.841025
0.843062
0.847738
0.85766
0.877173
0.91279
0.973404
1.06972
1.21132
1.3983
1.60907
1.79573
1.91663
1.97111
1.98087
1.9813
1.9794
1.97673
1.97366
1.9709
1.96864
1.96671
1.96522
1.96408
1.96309
1.96205
1.96086
1.95954
1.95817
1.9568
1.95548
1.95422
1.95303
1.95187
1.95073
1.94959
1.94845
1.94729
1.94615
1.94501
1.94389
1.94281
1.94168
1.94022
1.93756
1.93102
1.9123
1.11824
1.11475
1.10951
1.10209
1.09309
1.08287
1.07173
1.05996
1.04783
1.0355
1.02309
1.01067
0.998349
0.986204
0.974355
0.962932
0.952068
0.941905
0.932626
0.924458
0.917639
0.91238
0.90916
0.908351
0.91048
0.916003
0.926057
0.942325
0.967959
1.0078
1.07127
1.17921
1.27844
1.27124
1.0437
0.945744
0.930989
0.920797
0.910451
0.900459
0.891133
0.882337
0.873966
0.865965
0.85845
0.851421
0.844929
0.8391
0.834105
0.829981
0.826805
0.824518
0.823029
0.822182
0.821803
0.821745
0.822049
0.822661
0.823304
0.823883
0.824383
0.824817
0.825204
0.82556
0.825898
0.826225
0.826547
0.826868
0.827188
0.827507
0.827826
0.828144
0.82846
0.828774
0.829085
0.829391
0.829693
0.829991
0.830285
0.830576
0.830864
0.831152
0.83144
0.831729
0.832016
0.8323
0.832581
0.832857
0.833131
0.833402
0.833672
0.833941
0.834208
0.834474
0.834738
0.834998
0.835256
0.835509
0.835759
0.836007
0.836253
0.836496
0.836737
0.836976
0.837214
0.837448
0.837679
0.837907
0.838134
0.838363
0.8386
0.838847
0.839099
0.839336
0.839534
0.83968
0.839789
0.839905
0.84016
0.841026
0.843061
0.847734
0.857649
0.877149
0.912743
0.973324
1.06961
1.21116
1.39812
1.60891
1.79562
1.91659
1.9711
1.98088
1.98131
1.9794
1.97673
1.97367
1.97091
1.96865
1.96671
1.96522
1.96409
1.9631
1.96205
1.96086
1.95955
1.95817
1.9568
1.95548
1.95423
1.95303
1.95187
1.95073
1.94959
1.94845
1.9473
1.94615
1.94501
1.94389
1.94281
1.94168
1.94022
1.93756
1.93102
1.9123
1.10914
1.10564
1.10044
1.09309
1.0842
1.07407
1.06305
1.05143
1.03943
1.02722
1.01494
1.00266
0.990464
0.978454
0.966741
0.955455
0.944731
0.934707
0.925566
0.917543
0.910872
0.905745
0.90269
0.902067
0.904313
0.910018
0.920232
0.936681
0.962515
1.0026
1.06648
1.17555
1.27524
1.26741
1.04093
0.944931
0.930391
0.920272
0.909991
0.900061
0.890788
0.88204
0.873706
0.865741
0.858259
0.851256
0.844788
0.838979
0.834003
0.829896
0.826732
0.824457
0.822978
0.822139
0.821769
0.821716
0.822025
0.822642
0.823289
0.823871
0.824374
0.82481
0.825198
0.825556
0.825895
0.826222
0.826545
0.826866
0.827187
0.827507
0.827826
0.828144
0.82846
0.828774
0.829085
0.829392
0.829694
0.829992
0.830286
0.830577
0.830865
0.831153
0.831441
0.83173
0.832017
0.832301
0.832581
0.832858
0.833132
0.833403
0.833673
0.833942
0.834209
0.834475
0.834739
0.835
0.835257
0.83551
0.835761
0.836009
0.836254
0.836497
0.836738
0.836978
0.837215
0.83745
0.837681
0.837909
0.838136
0.838365
0.838601
0.838848
0.8391
0.839338
0.839535
0.839682
0.839791
0.839907
0.840162
0.841028
0.843062
0.847732
0.857643
0.877135
0.912717
0.973282
1.06954
1.21108
1.39802
1.60882
1.79556
1.91656
1.9711
1.98088
1.98131
1.97941
1.97674
1.97367
1.97091
1.96865
1.96672
1.96522
1.96409
1.9631
1.96205
1.96086
1.95955
1.95817
1.95681
1.95548
1.95423
1.95303
1.95188
1.95073
1.94959
1.94845
1.9473
1.94615
1.94501
1.94389
1.94281
1.94168
1.94022
1.93756
1.93102
1.9123
1.09878
1.09528
1.09013
1.08287
1.07407
1.06407
1.05319
1.0417
1.02984
1.01777
1.00563
0.99349
0.981442
0.969577
0.95801
0.946871
0.936293
0.926412
0.917413
0.909531
0.902999
0.897992
0.895075
0.89461
0.896952
0.902796
0.91311
0.929683
0.955669
0.995975
1.06041
1.17141
1.27103
1.26085
1.03559
0.943234
0.929089
0.919088
0.908916
0.899093
0.889916
0.881254
0.872992
0.865098
0.857681
0.850733
0.844317
0.838555
0.833622
0.829557
0.826429
0.824184
0.822735
0.821924
0.82158
0.821547
0.821876
0.822511
0.823175
0.823773
0.824289
0.824736
0.825136
0.825503
0.82585
0.826185
0.826514
0.82684
0.827165
0.827489
0.827811
0.828132
0.828451
0.828767
0.829079
0.829387
0.82969
0.829989
0.830284
0.830575
0.830864
0.831152
0.831441
0.831729
0.832017
0.832301
0.832582
0.832858
0.833132
0.833403
0.833673
0.833942
0.83421
0.834476
0.834739
0.835
0.835257
0.835511
0.835761
0.836009
0.836255
0.836498
0.836739
0.836978
0.837216
0.837451
0.837682
0.83791
0.838136
0.838366
0.838602
0.838849
0.839101
0.839339
0.839536
0.839683
0.839792
0.839908
0.840163
0.841029
0.843062
0.847732
0.857641
0.877131
0.912709
0.973267
1.06952
1.21105
1.39798
1.60878
1.79553
1.91654
1.9711
1.98088
1.98131
1.97941
1.97674
1.97367
1.97091
1.96865
1.96672
1.96522
1.96409
1.9631
1.96205
1.96086
1.95955
1.95817
1.95681
1.95548
1.95423
1.95303
1.95188
1.95074
1.94959
1.94845
1.9473
1.94615
1.94501
1.94389
1.94281
1.94168
1.94022
1.93756
1.93102
1.9123
1.08746
1.08409
1.07891
1.07173
1.06305
1.05319
1.04245
1.0311
1.01938
1.00746
0.995466
0.983481
0.971582
0.959867
0.94845
0.937461
0.927031
0.917295
0.908433
0.900685
0.894273
0.889367
0.886563
0.886227
0.888637
0.894557
0.904933
0.921574
0.947703
0.988349
1.05357
1.16731
1.2666
1.25082
1.02697
0.940446
0.926897
0.917054
0.907025
0.897351
0.888311
0.879772
0.871612
0.863827
0.856499
0.849634
0.843297
0.837609
0.832741
0.828748
0.825676
0.823486
0.822088
0.821327
0.821031
0.821036
0.821407
0.822079
0.82278
0.823411
0.823959
0.824437
0.824865
0.825258
0.825629
0.825987
0.826337
0.826683
0.827026
0.827366
0.827703
0.828037
0.828368
0.828695
0.829017
0.829334
0.829645
0.829951
0.830251
0.830548
0.830841
0.831133
0.831425
0.831716
0.832006
0.832293
0.832575
0.832853
0.833128
0.8334
0.833671
0.83394
0.834208
0.834475
0.834739
0.835
0.835257
0.835511
0.835761
0.836009
0.836255
0.836498
0.836739
0.836979
0.837216
0.837451
0.837682
0.83791
0.838137
0.838366
0.838602
0.838849
0.839102
0.839339
0.839537
0.839683
0.839792
0.839909
0.840164
0.841029
0.843063
0.847733
0.857641
0.87713
0.912708
0.973265
1.06952
1.21104
1.39797
1.60877
1.79552
1.91654
1.97109
1.98088
1.98131
1.97941
1.97674
1.97367
1.97091
1.96865
1.96672
1.96522
1.96409
1.9631
1.96205
1.96086
1.95955
1.95818
1.95681
1.95548
1.95423
1.95303
1.95188
1.95074
1.94959
1.94845
1.9473
1.94615
1.94501
1.94389
1.94281
1.94168
1.94022
1.93756
1.93102
1.9123
1.07569
1.07213
1.06699
1.05996
1.05143
1.0417
1.0311
1.0199
1.00833
0.996563
0.984722
0.972887
0.961139
0.949573
0.938307
0.927466
0.917181
0.907586
0.898855
0.891228
0.884914
0.880091
0.877381
0.877143
0.879593
0.885523
0.895958
0.912638
0.938932
0.980274
1.047
1.16343
1.26356
1.23672
1.01442
0.936469
0.923731
0.91407
0.904213
0.894726
0.885857
0.877474
0.869447
0.861795
0.854576
0.847815
0.841579
0.835988
0.831202
0.827305
0.824305
0.822187
0.820858
0.820168
0.81993
0.819988
0.820425
0.821147
0.8219
0.822583
0.823181
0.823706
0.824179
0.824617
0.82503
0.825429
0.825818
0.826201
0.826579
0.826953
0.827323
0.827688
0.828048
0.828402
0.82875
0.829091
0.829425
0.829752
0.830073
0.830388
0.830699
0.831006
0.831313
0.831617
0.831919
0.832216
0.832509
0.832795
0.833078
0.833358
0.833635
0.833909
0.834182
0.834453
0.83472
0.834985
0.835245
0.8355
0.835753
0.836002
0.836249
0.836494
0.836736
0.836976
0.837214
0.837449
0.837681
0.837909
0.838136
0.838365
0.838602
0.838849
0.839101
0.839339
0.839537
0.839683
0.839792
0.839909
0.840164
0.841029
0.843063
0.847733
0.857642
0.877131
0.912709
0.973267
1.06952
1.21104
1.39797
1.60877
1.79552
1.91654
1.97109
1.98088
1.98131
1.97941
1.97674
1.97368
1.97091
1.96865
1.96672
1.96522
1.96409
1.9631
1.96205
1.96086
1.95955
1.95818
1.95681
1.95548
1.95423
1.95303
1.95188
1.95074
1.94959
1.94845
1.9473
1.94615
1.94501
1.94389
1.94281
1.94168
1.94022
1.93756
1.93102
1.9123
1.06343
1.05977
1.05475
1.04783
1.03943
1.02984
1.01938
1.00833
0.996913
0.985302
0.97361
0.961922
0.950319
0.938898
0.927777
0.917078
0.906929
0.897466
0.888855
0.881334
0.8751
0.870349
0.86772
0.867553
0.870017
0.87592
0.886412
0.903178
0.929713
0.972028
1.04139
1.16218
1.26022
1.21709
0.998595
0.931398
0.919582
0.910117
0.900451
0.891184
0.882521
0.87431
0.866438
0.858934
0.851845
0.845207
0.83909
0.833612
0.828922
0.825131
0.822217
0.820185
0.818942
0.818335
0.818157
0.81828
0.818797
0.819581
0.820396
0.821142
0.821801
0.822386
0.822917
0.823411
0.82388
0.824332
0.824773
0.825207
0.825635
0.826057
0.826474
0.826885
0.827289
0.827686
0.828076
0.828457
0.82883
0.829195
0.829552
0.829902
0.830246
0.830587
0.830924
0.831258
0.831588
0.831912
0.83223
0.832541
0.832846
0.833147
0.833444
0.833737
0.834028
0.834314
0.834597
0.834875
0.835148
0.835415
0.835678
0.835937
0.836192
0.836444
0.836693
0.83694
0.837183
0.837423
0.837659
0.83789
0.83812
0.838352
0.838591
0.83884
0.839094
0.839333
0.839532
0.839679
0.839789
0.839906
0.840162
0.841028
0.843062
0.847732
0.857641
0.877131
0.912709
0.973268
1.06952
1.21104
1.39798
1.60877
1.79552
1.91654
1.97109
1.98088
1.98131
1.97941
1.97674
1.97368
1.97091
1.96865
1.96672
1.96522
1.96409
1.9631
1.96205
1.96086
1.95955
1.95818
1.95681
1.95548
1.95423
1.95303
1.95188
1.95074
1.94959
1.94845
1.9473
1.94615
1.94501
1.94389
1.94281
1.94168
1.94022
1.93756
1.93102
1.9123
1.05087
1.04725
1.04231
1.0355
1.02722
1.01777
1.00746
0.996563
0.985302
0.97384
0.962292
0.950742
0.939276
0.927993
0.917007
0.906439
0.896416
0.887076
0.878571
0.871146
0.864982
0.860298
0.857745
0.857631
0.860099
0.865991
0.876541
0.893503
0.920547
0.964519
1.03746
1.16576
1.25605
1.19043
0.980394
0.925391
0.914503
0.90523
0.895776
0.88676
0.878321
0.87029
0.862587
0.855245
0.848301
0.841799
0.835812
0.830457
0.825881
0.82219
0.819371
0.817443
0.816293
0.815772
0.815656
0.815855
0.816457
0.81731
0.818194
0.819008
0.819735
0.820387
0.820983
0.82154
0.822071
0.822585
0.823087
0.82358
0.824066
0.824545
0.825018
0.825483
0.825942
0.826392
0.826834
0.827266
0.82769
0.828104
0.828509
0.828906
0.829297
0.829682
0.830064
0.830441
0.830813
0.831178
0.831536
0.831886
0.832229
0.832567
0.8329
0.833228
0.833551
0.83387
0.834183
0.834491
0.834792
0.835087
0.835375
0.835659
0.835938
0.836212
0.836482
0.836747
0.837009
0.837266
0.837517
0.837763
0.838007
0.838251
0.838501
0.83876
0.839023
0.83927
0.839476
0.839631
0.839747
0.83987
0.840132
0.841005
0.843042
0.847717
0.857631
0.877125
0.912707
0.973268
1.06952
1.21105
1.39798
1.60877
1.79552
1.91654
1.9711
1.98088
1.98131
1.97941
1.97674
1.97368
1.97091
1.96865
1.96672
1.96522
1.96409
1.9631
1.96205
1.96086
1.95955
1.95818
1.95681
1.95548
1.95423
1.95303
1.95188
1.95074
1.94959
1.94845
1.9473
1.94615
1.94501
1.94389
1.94281
1.94168
1.94022
1.93756
1.93102
1.9123
1.03819
1.03464
1.02979
1.02309
1.01494
1.00563
0.995466
0.984722
0.97361
0.962292
0.950879
0.939461
0.928124
0.91697
0.906112
0.895668
0.885761
0.876533
0.868129
0.860793
0.854706
0.850095
0.847622
0.847564
0.850051
0.855993
0.866663
0.884026
0.911979
0.958398
1.0374
1.17086
1.25356
1.15587
0.960051
0.918641
0.908596
0.8995
0.890277
0.881529
0.873316
0.865472
0.857949
0.850775
0.843986
0.837627
0.831777
0.826551
0.822093
0.818506
0.815791
0.813958
0.812911
0.81248
0.812426
0.812704
0.81339
0.814315
0.81527
0.816154
0.816952
0.817673
0.818337
0.818961
0.819558
0.820136
0.820702
0.821258
0.821806
0.822347
0.82288
0.823405
0.823923
0.824431
0.824931
0.82542
0.8259
0.826369
0.826829
0.827281
0.827725
0.828163
0.828597
0.829025
0.829448
0.829864
0.83027
0.830669
0.83106
0.831445
0.831824
0.832198
0.832566
0.832929
0.833286
0.833635
0.833978
0.834313
0.834642
0.834964
0.83528
0.835591
0.835896
0.836196
0.836491
0.83678
0.837062
0.837338
0.83761
0.837881
0.838158
0.838442
0.838729
0.839
0.839229
0.839406
0.839544
0.83969
0.839974
0.840873
0.842926
0.847623
0.857558
0.877073
0.912674
0.973252
1.06952
1.21105
1.39798
1.60878
1.79553
1.91654
1.9711
1.98088
1.98131
1.97941
1.97674
1.97368
1.97091
1.96865
1.96672
1.96522
1.96409
1.9631
1.96205
1.96086
1.95955
1.95818
1.95681
1.95548
1.95423
1.95303
1.95188
1.95074
1.94959
1.94845
1.9473
1.94615
1.94501
1.94389
1.94281
1.94168
1.94022
1.93756
1.93102
1.9123
1.02551
1.02203
1.01726
1.01067
1.00266
0.99349
0.983481
0.972887
0.961922
0.950742
0.939461
0.928168
0.916957
0.90593
0.895198
0.884875
0.875083
0.865967
0.857666
0.850426
0.844431
0.839905
0.837526
0.837558
0.840136
0.846238
0.85717
0.875294
0.904837
0.954896
1.04187
1.17971
1.24848
1.11125
0.940652
0.911343
0.90198
0.893041
0.884063
0.875589
0.867598
0.859947
0.852609
0.845607
0.838976
0.832763
0.827051
0.821956
0.817615
0.814135
0.811524
0.80978
0.808836
0.808494
0.808502
0.80886
0.809627
0.810621
0.811646
0.8126
0.813465
0.814254
0.814986
0.815676
0.816338
0.816981
0.81761
0.818229
0.81884
0.819442
0.820037
0.820623
0.821201
0.821769
0.822328
0.822876
0.823413
0.823941
0.824458
0.824967
0.825467
0.825961
0.826451
0.826935
0.827412
0.827882
0.828343
0.828795
0.829239
0.829676
0.830107
0.830532
0.830952
0.831365
0.831772
0.832172
0.832563
0.832947
0.833323
0.833692
0.834055
0.834412
0.834762
0.835107
0.835445
0.835777
0.836101
0.836419
0.836732
0.837045
0.837362
0.837687
0.838015
0.838327
0.838598
0.838817
0.839
0.839193
0.839522
0.84048
0.842575
0.847323
0.857311
0.87688
0.912532
0.973157
1.06947
1.21103
1.39798
1.60878
1.79553
1.91654
1.9711
1.98088
1.98131
1.97941
1.97674
1.97368
1.97091
1.96865
1.96672
1.96522
1.96409
1.9631
1.96205
1.96086
1.95955
1.95818
1.95681
1.95548
1.95423
1.95303
1.95188
1.95074
1.94959
1.94845
1.9473
1.94615
1.94501
1.94389
1.94281
1.94168
1.94022
1.93756
1.93102
1.9123
1.0129
1.0095
1.00482
0.998349
0.990464
0.981442
0.971582
0.961139
0.950319
0.939276
0.928124
0.916957
0.905872
0.894974
0.884371
0.874176
0.864508
0.855513
0.847331
0.840203
0.834329
0.829924
0.827659
0.827819
0.830575
0.836964
0.848388
0.867702
0.899733
0.95454
1.05409
1.18923
1.23944
1.05781
0.923707
0.903629
0.894771
0.885971
0.877252
0.869048
0.861275
0.853819
0.846666
0.839837
0.833362
0.827296
0.82172
0.816752
0.812528
0.809153
0.806643
0.804988
0.80414
0.803874
0.803943
0.804387
0.805227
0.806284
0.807374
0.808394
0.809324
0.810177
0.810972
0.811725
0.812449
0.813153
0.813843
0.814523
0.815193
0.815855
0.816508
0.817153
0.817788
0.818414
0.81903
0.819636
0.82023
0.820814
0.821388
0.821953
0.822509
0.823059
0.823604
0.824143
0.824676
0.8252
0.825716
0.826222
0.826721
0.827212
0.827697
0.828176
0.828648
0.829115
0.829574
0.830026
0.83047
0.830905
0.831333
0.831753
0.832167
0.832573
0.832974
0.833368
0.833756
0.834137
0.834511
0.834879
0.835242
0.835606
0.835976
0.836355
0.83674
0.83711
0.837442
0.837725
0.837975
0.838242
0.83864
0.83969
0.841862
0.846695
0.856772
0.876428
0.912169
0.972881
1.06927
1.21091
1.39792
1.60876
1.79553
1.91654
1.9711
1.98088
1.98131
1.97941
1.97674
1.97368
1.97091
1.96865
1.96672
1.96522
1.96409
1.9631
1.96205
1.96086
1.95955
1.95818
1.95681
1.95548
1.95423
1.95303
1.95188
1.95074
1.9496
1.94845
1.9473
1.94615
1.94501
1.94389
1.94281
1.94168
1.94022
1.93756
1.93102
1.9123
1.00047
0.997139
0.992559
0.986204
0.978454
0.969577
0.959867
0.949573
0.938898
0.927993
0.91697
0.90593
0.894974
0.884211
0.873746
0.863689
0.854161
0.845302
0.837262
0.830273
0.824556
0.820323
0.818228
0.818582
0.821652
0.828558
0.840866
0.861821
0.897469
0.959037
1.07478
1.20265
1.21052
1.00452
0.909528
0.895598
0.887074
0.878407
0.869959
0.862016
0.854457
0.847196
0.840226
0.833564
0.827243
0.821319
0.815877
0.811032
0.80692
0.803646
0.801233
0.799667
0.798905
0.798702
0.798831
0.799357
0.800263
0.801379
0.802528
0.803608
0.804597
0.805509
0.806362
0.807172
0.807953
0.808714
0.80946
0.810195
0.81092
0.811636
0.812344
0.813043
0.813732
0.814412
0.815081
0.81574
0.816387
0.817024
0.817651
0.818268
0.818877
0.81948
0.820077
0.820669
0.821254
0.82183
0.822398
0.822957
0.823508
0.824051
0.824588
0.825119
0.825644
0.826162
0.826674
0.827178
0.827673
0.82816
0.828639
0.82911
0.829575
0.830033
0.830484
0.83093
0.831371
0.831805
0.832234
0.832658
0.83308
0.833504
0.833937
0.834383
0.834838
0.835283
0.835694
0.83606
0.836398
0.836763
0.837258
0.838418
0.840708
0.845658
0.855856
0.875632
0.911491
0.972322
1.06884
1.2106
1.39773
1.60867
1.7955
1.91654
1.9711
1.98088
1.98131
1.97941
1.97674
1.97368
1.97091
1.96865
1.96672
1.96522
1.96409
1.9631
1.96205
1.96086
1.95955
1.95818
1.95681
1.95548
1.95423
1.95303
1.95188
1.95074
1.9496
1.94845
1.9473
1.94615
1.94501
1.94389
1.94281
1.94168
1.94022
1.93756
1.93102
1.9123
0.988315
0.985072
0.980588
0.974355
0.966741
0.95801
0.94845
0.938307
0.927777
0.917007
0.906112
0.895198
0.884371
0.873746
0.863425
0.853519
0.84415
0.835451
0.827588
0.820777
0.815257
0.811272
0.809441
0.810101
0.813655
0.821342
0.835035
0.858592
0.899171
0.970818
1.10582
1.21381
1.15907
0.955826
0.897804
0.887319
0.878974
0.870459
0.862293
0.8546
0.847249
0.840179
0.833386
0.826886
0.820713
0.814927
0.809612
0.804885
0.800879
0.7977
0.795379
0.793901
0.793214
0.793064
0.793248
0.793847
0.794816
0.795985
0.797187
0.798321
0.799363
0.800328
0.801232
0.802094
0.802927
0.803738
0.804534
0.805318
0.806093
0.806858
0.807614
0.808361
0.809098
0.809826
0.810543
0.811249
0.811945
0.812629
0.813303
0.813968
0.814625
0.815275
0.81592
0.816559
0.817192
0.817817
0.818432
0.819039
0.819638
0.820229
0.820815
0.821394
0.821967
0.822533
0.823093
0.823645
0.824189
0.824724
0.825251
0.825772
0.826286
0.826794
0.827296
0.827794
0.828288
0.828779
0.829266
0.829751
0.830238
0.830732
0.831239
0.831763
0.832302
0.832837
0.833345
0.833812
0.834257
0.834743
0.835368
0.836628
0.839075
0.844168
0.854512
0.87443
0.91043
0.971402
1.06806
1.20997
1.39727
1.60838
1.79537
1.9165
1.9711
1.98088
1.98132
1.97941
1.97674
1.97368
1.97091
1.96865
1.96672
1.96522
1.96409
1.9631
1.96205
1.96086
1.95955
1.95818
1.95681
1.95548
1.95423
1.95303
1.95188
1.95074
1.9496
1.94845
1.9473
1.94615
1.94501
1.94389
1.94281
1.94168
1.94022
1.93756
1.93102
1.9123
0.97658
0.973425
0.969041
0.962932
0.955455
0.946871
0.937461
0.927466
0.917078
0.906439
0.895668
0.884875
0.874176
0.863689
0.853519
0.843779
0.834591
0.826081
0.81843
0.811827
0.806534
0.802889
0.801432
0.802538
0.80678
0.815611
0.831536
0.858671
0.906317
0.993985
1.14362
1.21667
1.08541
0.917836
0.887717
0.878834
0.870552
0.862232
0.854351
0.846896
0.839746
0.832861
0.826237
0.819891
0.81386
0.808204
0.80301
0.798394
0.794488
0.791398
0.789164
0.787769
0.78715
0.787041
0.787275
0.78794
0.788966
0.790183
0.791431
0.792612
0.793702
0.794712
0.795662
0.79657
0.797447
0.798303
0.799143
0.79997
0.800788
0.801595
0.802394
0.803183
0.803963
0.804732
0.805491
0.806239
0.806976
0.807702
0.808418
0.809125
0.809823
0.810515
0.811202
0.811883
0.812557
0.813224
0.813882
0.814531
0.815172
0.815806
0.816434
0.817056
0.817672
0.818282
0.818885
0.81948
0.820067
0.820646
0.821218
0.821783
0.822343
0.822899
0.823451
0.824001
0.82455
0.825098
0.825647
0.826199
0.826758
0.827329
0.827919
0.828532
0.829168
0.829806
0.830425
0.831011
0.831578
0.832203
0.832978
0.834346
0.836955
0.842205
0.852711
0.872789
0.908945
0.970073
1.06689
1.20896
1.39645
1.60778
1.79501
1.91635
1.97106
1.98088
1.98131
1.97941
1.97674
1.97368
1.97091
1.96865
1.96672
1.96522
1.96409
1.9631
1.96205
1.96086
1.95955
1.95818
1.95681
1.95548
1.95423
1.95303
1.95188
1.95074
1.9496
1.94845
1.9473
1.94615
1.94501
1.94389
1.94281
1.94168
1.94022
1.93756
1.93102
1.9123
0.965392
0.962329
0.958049
0.952068
0.944731
0.936293
0.927031
0.917181
0.906929
0.896416
0.885761
0.875083
0.864508
0.854161
0.84415
0.834591
0.825604
0.817306
0.809894
0.803529
0.79849
0.795301
0.794383
0.796149
0.801389
0.812011
0.83086
0.863307
0.921296
1.0343
1.17508
1.19769
1.00059
0.894106
0.878394
0.870149
0.861899
0.853824
0.846219
0.838987
0.832031
0.825321
0.818857
0.812657
0.806759
0.801226
0.796146
0.791634
0.78782
0.784815
0.782661
0.781343
0.780784
0.780709
0.780984
0.781708
0.782785
0.784045
0.785333
0.786556
0.787687
0.788737
0.789727
0.790674
0.79159
0.792484
0.793362
0.794227
0.795081
0.795926
0.79676
0.797586
0.798401
0.799207
0.800001
0.800785
0.801557
0.802319
0.803071
0.803813
0.804547
0.805275
0.805997
0.806714
0.807424
0.808127
0.808821
0.809507
0.810184
0.810855
0.81152
0.812178
0.812831
0.813477
0.814117
0.81475
0.815375
0.815993
0.816605
0.817212
0.817815
0.818416
0.819016
0.819618
0.820223
0.820833
0.821448
0.822072
0.822708
0.823364
0.824046
0.824758
0.8255
0.826253
0.826995
0.827711
0.82841
0.829182
0.830117
0.831606
0.834373
0.839785
0.850456
0.870702
0.907024
0.968313
1.06528
1.20751
1.39517
1.60673
1.79427
1.91593
1.97093
1.98084
1.9813
1.97941
1.97675
1.97368
1.97091
1.96865
1.96672
1.96522
1.96409
1.9631
1.96205
1.96086
1.95955
1.95818
1.95681
1.95549
1.95423
1.95303
1.95188
1.95074
1.9496
1.94845
1.9473
1.94615
1.94501
1.94389
1.94281
1.94168
1.94022
1.93756
1.93102
1.9123
0.954891
0.95193
0.947757
0.941905
0.934707
0.926412
0.917295
0.907586
0.897466
0.887076
0.876533
0.865967
0.855513
0.845302
0.835451
0.826081
0.817306
0.809243
0.802109
0.796053
0.791356
0.788757
0.788591
0.791224
0.798134
0.811151
0.83412
0.874692
0.948661
1.09159
1.19718
1.12803
0.931703
0.879422
0.869338
0.861267
0.853106
0.845314
0.837969
0.830945
0.824172
0.817628
0.811314
0.80525
0.799477
0.794059
0.789085
0.784669
0.780942
0.778014
0.775935
0.774687
0.77418
0.774134
0.774442
0.775217
0.776341
0.777638
0.778961
0.780219
0.781385
0.78247
0.783494
0.784475
0.785424
0.786351
0.787261
0.788158
0.789044
0.789919
0.790785
0.791641
0.792487
0.793322
0.794147
0.79496
0.795763
0.796554
0.797336
0.798108
0.798872
0.799629
0.800381
0.801128
0.801869
0.802602
0.803326
0.804042
0.80475
0.805451
0.806146
0.806835
0.807519
0.808196
0.808868
0.809533
0.810191
0.810843
0.811491
0.812136
0.812781
0.813426
0.814075
0.81473
0.815394
0.816067
0.816753
0.817455
0.818176
0.818924
0.819705
0.820523
0.82138
0.822254
0.823126
0.823978
0.824813
0.825731
0.826829
0.828452
0.83137
0.836944
0.84778
0.868193
0.90468
0.966128
1.06325
1.20561
1.3934
1.60515
1.79302
1.91506
1.97057
1.98072
1.98123
1.97939
1.97675
1.97368
1.97092
1.96866
1.96672
1.96522
1.96409
1.9631
1.96205
1.96086
1.95955
1.95818
1.95681
1.95549
1.95423
1.95303
1.95188
1.95074
1.9496
1.94845
1.9473
1.94615
1.94501
1.94389
1.94281
1.94168
1.94022
1.93756
1.93102
1.9123
0.945256
0.942403
0.938345
0.932626
0.925566
0.917413
0.908433
0.898855
0.888855
0.878571
0.868129
0.857666
0.847331
0.837262
0.827588
0.81843
0.809894
0.802109
0.795296
0.789632
0.785497
0.783536
0.784394
0.788571
0.797639
0.814063
0.843319
0.896181
0.997195
1.15087
1.19701
1.02249
0.889725
0.868736
0.860327
0.852235
0.844269
0.83677
0.829662
0.822832
0.81623
0.809839
0.803663
0.797726
0.792069
0.786759
0.781883
0.777556
0.773908
0.771052
0.76904
0.767855
0.767394
0.767371
0.767706
0.768525
0.76969
0.77102
0.772371
0.773659
0.774855
0.77597
0.777024
0.778033
0.779011
0.779965
0.780902
0.781826
0.782738
0.78364
0.784531
0.785412
0.786283
0.787144
0.787993
0.788832
0.789659
0.790475
0.791281
0.792078
0.792866
0.793648
0.794425
0.795196
0.795962
0.796719
0.797468
0.798209
0.798941
0.799667
0.800387
0.801101
0.80181
0.802514
0.803212
0.803904
0.804591
0.805275
0.805956
0.806638
0.807323
0.808014
0.808713
0.809424
0.81015
0.810892
0.811654
0.812439
0.81325
0.814096
0.814983
0.815913
0.816888
0.817887
0.818891
0.819879
0.820852
0.821913
0.823169
0.824932
0.827993
0.833725
0.844721
0.865297
0.901947
0.963549
1.0608
1.20327
1.39112
1.60298
1.79114
1.91355
1.9698
1.98043
1.98104
1.97932
1.97674
1.97368
1.97092
1.96866
1.96672
1.96523
1.96409
1.9631
1.96205
1.96086
1.95955
1.95818
1.95681
1.95549
1.95423
1.95303
1.95188
1.95074
1.9496
1.94845
1.9473
1.94615
1.94501
1.94389
1.94281
1.94168
1.94022
1.93756
1.93102
1.9123
0.936709
0.933974
0.930037
0.924458
0.917543
0.909531
0.900685
0.891228
0.881334
0.871146
0.860793
0.850426
0.840203
0.830273
0.820777
0.811827
0.803529
0.796053
0.789632
0.78447
0.781234
0.78045
0.782597
0.788777
0.800777
0.822322
0.861378
0.933276
1.07377
1.18466
1.1299
0.929069
0.870043
0.859272
0.851215
0.843152
0.835467
0.828242
0.821347
0.814696
0.808251
0.802001
0.795953
0.790132
0.784583
0.779371
0.774585
0.77034
0.766765
0.763973
0.762023
0.760893
0.76047
0.760467
0.760825
0.76168
0.76288
0.764238
0.765613
0.766926
0.768148
0.769288
0.770367
0.7714
0.772402
0.773379
0.774339
0.775285
0.776219
0.777142
0.778055
0.778957
0.779849
0.78073
0.7816
0.782458
0.783305
0.784142
0.784967
0.785784
0.786592
0.787394
0.78819
0.788981
0.789766
0.790544
0.791312
0.792073
0.792825
0.793571
0.794311
0.795045
0.795774
0.796499
0.79722
0.797937
0.798651
0.799364
0.800078
0.800797
0.801524
0.802262
0.803014
0.803785
0.804577
0.805393
0.806236
0.807109
0.808016
0.808965
0.80996
0.811006
0.812101
0.813225
0.814359
0.81548
0.81659
0.817787
0.819192
0.821095
0.824291
0.830172
0.841323
0.862058
0.898867
0.960622
1.058
1.20053
1.38838
1.60022
1.78858
1.91126
1.96835
1.97988
1.98064
1.97912
1.97667
1.97367
1.97092
1.96866
1.96672
1.96523
1.96409
1.9631
1.96205
1.96087
1.95955
1.95818
1.95681
1.95549
1.95423
1.95303
1.95188
1.95074
1.9496
1.94845
1.9473
1.94615
1.94501
1.94389
1.94281
1.94168
1.94023
1.93756
1.93102
1.9123
0.929487
0.92688
0.92307
0.917639
0.910872
0.902999
0.894273
0.884914
0.8751
0.864982
0.854706
0.844431
0.834329
0.824556
0.815257
0.806534
0.79849
0.791356
0.785497
0.781234
0.779162
0.779898
0.783844
0.792698
0.809155
0.839233
0.894005
0.999033
1.1494
1.18409
1.00322
0.878306
0.858577
0.850097
0.842003
0.834131
0.826753
0.819771
0.813066
0.806577
0.800275
0.794153
0.788221
0.782506
0.777055
0.771933
0.76723
0.76306
0.759551
0.756818
0.754922
0.753841
0.753449
0.753462
0.753842
0.754723
0.755952
0.757333
0.758729
0.760062
0.761306
0.762467
0.763566
0.76462
0.765641
0.766638
0.767617
0.768582
0.769534
0.770474
0.771404
0.772323
0.773231
0.774129
0.775015
0.77589
0.776753
0.777605
0.778447
0.779279
0.780103
0.78092
0.781732
0.782539
0.783339
0.784132
0.784916
0.785691
0.786459
0.78722
0.787976
0.788727
0.789473
0.790217
0.790958