/*--------------------------------*- C++ -*----------------------------------*\
  =========                 |
  \\      /  F ield         | OpenFOAM: The Open Source CFD Toolbox
   \\    /   O peration     | Website:  https://openfoam.org
    \\  /    A nd           | Version:  13
     \\/     M anipulation  |
\*---------------------------------------------------------------------------*/
FoamFile
{
    format      ascii;
    class       volScalarField;
    location    "0.0014";
    object      T;
}
// * * * * * * * * * * * * * * * * * * * * * * * * * * * * * * * * * * * * * //

dimensions      [0 0 0 1 0 0 0];

internalField   nonuniform List<scalar> 
33334
(
3139.24
3136.94
3133.46
3128.49
3122.44
3115.51
3107.88
3099.94
3091.73
3083.44
3075.33
3067.52
3060.11
3053.18
3046.74
3040.77
3035.18
3029.98
3025.26
3021.21
3017.89
3015.29
3013.48
3012.89
3014.17
3017.14
3022.54
3032.11
3048.27
3073.5
3107.89
3126.8
2711.33
1723.86
1330.58
1260.87
1230.58
1204.83
1182.06
1162.08
1144.38
1128.49
1114.08
1100.9
1088.81
1077.68
1067.43
1058.01
1049.41
1041.59
1034.51
1028.12
1022.34
1017.09
1012.25
1007.75
1003.62
999.805
996.181
992.698
989.342
986.105
982.985
979.978
977.079
974.284
971.588
968.985
966.471
964.041
961.689
959.411
957.202
955.059
952.978
950.956
948.989
947.075
945.211
943.396
941.627
939.903
938.222
936.582
934.982
933.419
931.891
930.397
928.935
927.505
926.106
924.737
923.396
922.083
920.797
919.535
918.299
917.086
915.896
914.729
913.585
912.462
911.36
910.279
909.217
908.174
907.152
906.148
905.161
904.185
903.216
902.25
901.294
900.365
899.489
898.687
897.942
897.177
896.228
894.8
892.07
886.585
875.775
855.824
822.157
771
701.929
620.27
537.223
466.192
416.359
389.032
378.339
375.323
374.844
374.807
374.9
375.066
375.196
375.218
375.184
375.08
374.915
374.729
374.558
374.42
374.313
374.224
374.14
374.053
373.959
373.858
373.753
373.649
373.548
373.455
373.37
373.292
373.218
373.148
373.078
373.001
372.891
372.675
372.131
370.612
3136.94
3134.63
3131.15
3126.17
3120.11
3113.16
3105.6
3097.51
3089.2
3080.92
3072.83
3065.05
3057.67
3050.77
3044.37
3038.43
3032.89
3027.74
3023.09
3019.11
3015.88
3013.38
3011.68
3011.22
3012.64
3015.77
3021.34
3031.09
3047.44
3072.85
3107.38
3126.35
2710.72
1723.62
1330.56
1260.87
1230.58
1204.83
1182.06
1162.08
1144.38
1128.49
1114.08
1100.89
1088.81
1077.68
1067.43
1058.01
1049.41
1041.59
1034.51
1028.12
1022.34
1017.08
1012.25
1007.75
1003.62
999.804
996.18
992.697
989.34
986.104
982.984
979.976
977.077
974.282
971.586
968.984
966.47
964.039
961.687
959.409
957.201
955.058
952.977
950.955
948.988
947.074
945.21
943.395
941.626
939.902
938.221
936.581
934.981
933.417
931.889
930.395
928.934
927.504
926.105
924.735
923.395
922.082
920.795
919.534
918.297
917.085
915.895
914.728
913.584
912.461
911.359
910.277
909.215
908.173
907.15
906.146
905.159
904.184
903.215
902.249
901.293
900.363
899.488
898.685
897.941
897.176
896.228
894.799
892.073
886.593
875.79
855.849
822.194
771.048
701.982
620.319
537.261
466.216
416.372
389.037
378.34
375.323
374.843
374.806
374.899
375.065
375.196
375.218
375.183
375.079
374.915
374.728
374.557
374.419
374.312
374.223
374.139
374.052
373.958
373.857
373.753
373.648
373.548
373.455
373.369
373.291
373.218
373.148
373.078
373
372.891
372.675
372.13
370.612
3133.46
3131.15
3127.66
3122.69
3116.62
3109.68
3102.09
3093.99
3085.73
3077.48
3069.41
3061.66
3054.31
3047.44
3041.08
3035.18
3029.69
3024.59
3020
3016.09
3012.94
3010.52
3008.93
3008.61
3010.18
3013.46
3019.21
3029.18
3045.76
3071.42
3106.13
3124.99
2707.85
1722.18
1330.4
1260.85
1230.58
1204.82
1182.05
1162.07
1144.38
1128.49
1114.08
1100.89
1088.81
1077.68
1067.43
1058.01
1049.41
1041.59
1034.51
1028.12
1022.34
1017.08
1012.25
1007.75
1003.62
999.802
996.178
992.695
989.339
986.102
982.982
979.974
977.076
974.28
971.584
968.982
966.468
964.037
961.685
959.407
957.199
955.056
952.975
950.952
948.986
947.072
945.208
943.392
941.623
939.899
938.218
936.579
934.978
933.415
931.887
930.393
928.931
927.501
926.102
924.733
923.392
922.079
920.793
919.532
918.295
917.082
915.892
914.726
913.581
912.458
911.356
910.275
909.213
908.171
907.148
906.144
905.157
904.181
903.212
902.247
901.29
900.361
899.485
898.683
897.938
897.173
896.226
894.798
892.075
886.6
875.807
855.883
822.249
771.122
702.068
620.405
537.333
466.265
416.399
389.048
378.342
375.322
374.842
374.804
374.897
375.064
375.194
375.216
375.182
375.078
374.914
374.727
374.556
374.418
374.311
374.222
374.138
374.052
373.957
373.857
373.752
373.647
373.547
373.454
373.369
373.29
373.217
373.147
373.077
373
372.89
372.675
372.13
370.612
3128.49
3126.17
3122.69
3117.74
3111.69
3104.77
3097.18
3089.16
3080.93
3072.71
3064.67
3056.95
3049.64
3042.81
3036.49
3030.64
3025.2
3020.15
3015.63
3011.8
3008.74
3006.39
3004.93
3004.76
3006.48
3009.94
3015.89
3026.1
3042.96
3068.93
3103.84
3122.12
2699.79
1717.72
1329.82
1260.76
1230.51
1204.76
1182.01
1162.04
1144.35
1128.47
1114.06
1100.88
1088.79
1077.67
1067.42
1058
1049.41
1041.58
1034.51
1028.12
1022.34
1017.08
1012.25
1007.75
1003.62
999.801
996.177
992.694
989.337
986.101
982.98
979.973
977.074
974.279
971.583
968.98
966.466
964.036
961.684
959.406
957.197
955.054
952.973
950.951
948.984
947.07
945.206
943.391
941.622
939.897
938.216
936.577
934.976
933.413
931.885
930.391
928.929
927.499
926.1
924.731
923.39
922.077
920.791
919.529
918.293
917.08
915.89
914.723
913.579
912.456
911.354
910.272
909.21
908.168
907.145
906.141
905.154
904.179
903.21
902.244
901.288
900.358
899.482
898.68
897.935
897.17
896.224
894.797
892.076
886.606
875.822
855.911
822.293
771.185
702.145
620.484
537.4
466.312
416.424
389.057
378.344
375.322
374.841
374.803
374.896
375.063
375.193
375.216
375.181
375.077
374.913
374.726
374.555
374.418
374.311
374.222
374.138
374.051
373.957
373.856
373.751
373.647
373.547
373.453
373.368
373.29
373.217
373.147
373.077
373
372.89
372.675
372.13
370.612
3122.44
3120.11
3116.62
3111.69
3105.68
3098.78
3091.23
3083.25
3075.06
3066.87
3058.87
3051.19
3043.91
3037.12
3030.84
3025.04
3019.65
3014.66
3010.2
3006.45
3003.47
3001.2
2999.84
2999.82
3001.69
3005.33
3011.47
3021.93
3039.08
3065.39
3100.45
3117.26
2682.65
1707.8
1328.37
1260.45
1230.27
1204.55
1181.82
1161.88
1144.22
1128.36
1113.96
1100.79
1088.72
1077.61
1067.37
1057.96
1049.37
1041.55
1034.48
1028.09
1022.32
1017.07
1012.23
1007.74
1003.61
999.793
996.17
992.689
989.333
986.097
982.977
979.971
977.072
974.277
971.581
968.979
966.465
964.034
961.683
959.405
957.196
955.053
952.972
950.95
948.983
947.069
945.205
943.389
941.62
939.896
938.215
936.576
934.975
933.412
931.884
930.389
928.928
927.498
926.099
924.729
923.389
922.076
920.789
919.528
918.291
917.078
915.889
914.722
913.577
912.454
911.352
910.271
909.209
908.166
907.144
906.14
905.152
904.177
903.208
902.242
901.286
900.356
899.48
898.678
897.933
897.168
896.222
894.796
892.076
886.608
875.828
855.924
822.316
771.218
702.186
620.528
537.44
466.34
416.439
389.064
378.346
375.321
374.84
374.803
374.896
375.063
375.193
375.215
375.18
375.077
374.913
374.726
374.555
374.417
374.31
374.221
374.138
374.051
373.957
373.856
373.751
373.647
373.547
373.453
373.368
373.29
373.217
373.147
373.077
373
372.89
372.675
372.13
370.612
3115.51
3113.16
3109.68
3104.77
3098.78
3091.92
3084.41
3076.47
3068.31
3060.16
3052.2
3044.55
3037.32
3030.57
3024.33
3018.57
3013.23
3008.3
3003.9
3000.22
2997.31
2995.12
2993.86
2993.98
2996.01
2999.82
3006.16
3016.88
3034.33
3060.93
3096.03
3110.4
2651.84
1689.97
1325.63
1259.76
1229.72
1204.06
1181.39
1161.5
1143.88
1128.06
1113.69
1100.55
1088.51
1077.42
1067.2
1057.8
1049.23
1041.43
1034.37
1027.99
1022.23
1016.99
1012.17
1007.67
1003.55
999.747
996.13
992.654
989.303
986.071
982.955
979.952
977.056
974.264
971.57
968.969
966.457
964.028
961.677
959.4
957.192
955.05
952.97
950.948
948.981
947.067
945.204
943.388
941.62
939.895
938.214
936.575
934.975
933.411
931.883
930.389
928.927
927.497
926.098
924.729
923.388
922.075
920.788
919.527
918.291
917.078
915.888
914.721
913.576
912.454
911.352
910.27
909.208
908.166
907.143
906.139
905.151
904.176
903.207
902.241
901.285
900.355
899.479
898.677
897.932
897.167
896.221
894.795
892.076
886.609
875.83
855.928
822.323
771.229
702.201
620.544
537.454
466.351
416.446
389.066
378.346
375.321
374.84
374.803
374.896
375.062
375.193
375.215
375.18
375.077
374.912
374.726
374.555
374.417
374.31
374.221
374.138
374.051
373.957
373.856
373.751
373.647
373.547
373.453
373.368
373.29
373.217
373.147
373.077
373
372.89
372.675
372.13
370.612
3107.88
3105.6
3102.09
3097.18
3091.23
3084.41
3076.94
3069.03
3060.91
3052.8
3044.87
3037.26
3030.07
3023.36
3017.17
3011.46
3006.16
3001.28
2996.94
2993.33
2990.5
2988.39
2987.22
2987.49
2989.69
2993.67
3000.23
3011.26
3029.03
3055.89
3090.92
3100.75
2603.06
1662.42
1321.28
1258.56
1228.74
1203.17
1180.6
1160.79
1143.24
1127.48
1113.16
1100.07
1088.06
1077
1066.82
1057.45
1048.9
1041.13
1034.09
1027.74
1021.99
1016.77
1011.97
1007.49
1003.39
999.595
995.99
992.527
989.188
985.967
982.861
979.867
976.98
974.196
971.509
968.915
966.409
963.986
961.64
959.368
957.164
955.026
952.949
950.93
948.966
947.054
945.193
943.379
941.612
939.889
938.209
936.57
934.971
933.408
931.881
930.387
928.926
927.496
926.097
924.728
923.387
922.074
920.788
919.527
918.29
917.077
915.887
914.721
913.576
912.453
911.351
910.27
909.208
908.165
907.142
906.138
905.151
904.176
903.207
902.241
901.284
900.355
899.479
898.676
897.932
897.167
896.22
894.794
892.075
886.609
875.83
855.929
822.324
771.231
702.204
620.548
537.458
466.354
416.448
389.067
378.347
375.321
374.84
374.803
374.896
375.062
375.193
375.215
375.18
375.077
374.912
374.726
374.555
374.417
374.31
374.221
374.138
374.051
373.957
373.856
373.751
373.647
373.547
373.453
373.368
373.29
373.217
373.147
373.077
373
372.89
372.675
372.13
370.612
3099.94
3097.51
3093.99
3089.16
3083.25
3076.47
3069.03
3061.15
3053.07
3045
3037.11
3029.54
3022.39
3015.72
3009.57
3003.9
2998.66
2993.83
2989.56
2986.02
2983.27
2981.26
2980.2
2980.61
2983
2987.15
2993.98
3005.36
3023.48
3050.67
3085.93
3086.14
2533.06
1625.03
1315.15
1256.73
1227.24
1201.8
1179.36
1159.68
1142.23
1126.55
1112.3
1099.28
1087.32
1076.31
1066.17
1056.84
1048.33
1040.59
1033.59
1027.26
1021.55
1016.35
1011.57
1007.11
1003.04
999.264
995.678
992.234
988.914
985.711
982.622
979.644
976.772
974.003
971.33
968.75
966.256
963.845
961.511
959.249
957.056
954.927
952.859
950.848
948.892
946.987
945.133
943.326
941.564
939.846
938.172
936.537
934.942
933.383
931.859
930.368
928.909
927.482
926.085
924.718
923.379
922.067
920.782
919.522
918.286
917.074
915.885
914.718
913.574
912.452
911.35
910.269
909.207
908.165
907.142
906.138
905.151
904.175
903.206
902.241
901.284
900.355
899.479
898.676
897.931
897.167
896.22
894.794
892.075
886.608
875.83
855.928
822.324
771.231
702.204
620.548
537.458
466.355
416.449
389.068
378.347
375.321
374.84
374.803
374.896
375.062
375.193
375.215
375.18
375.077
374.912
374.726
374.555
374.417
374.31
374.221
374.138
374.051
373.957
373.856
373.751
373.647
373.547
373.453
373.368
373.29
373.217
373.147
373.077
373
372.89
372.675
372.13
370.612
3091.73
3089.2
3085.73
3080.93
3075.06
3068.31
3060.91
3053.07
3045.03
3036.99
3029.14
3021.6
3014.49
3007.86
3001.76
2996.14
2990.94
2986.17
2981.96
2978.52
2975.86
2973.96
2973.04
2973.61
2976.2
2980.52
2987.65
2999.38
3017.83
3045.57
3080.97
3064.66
2435.37
1578.46
1307.6
1254.21
1225.14
1199.88
1177.64
1158.13
1140.81
1125.24
1111.08
1098.13
1086.24
1075.3
1065.21
1055.94
1047.46
1039.77
1032.81
1026.52
1020.84
1015.68
1010.91
1006.49
1002.45
998.703
995.141
991.721
988.425
985.245
982.179
979.222
976.371
973.622
970.969
968.407
965.931
963.537
961.22
958.975
956.797
954.684
952.63
950.634
948.691
946.8
944.958
943.163
941.413
939.707
938.042
936.418
934.832
933.282
931.766
930.284
928.833
927.413
926.022
924.661
923.328
922.022
920.741
919.486
918.254
917.046
915.86
914.697
913.556
912.436
911.336
910.257
909.197
908.156
907.135
906.132
905.146
904.171
903.203
902.238
901.282
900.352
899.477
898.675
897.93
897.166
896.219
894.794
892.074
886.608
875.829
855.927
822.323
771.229
702.202
620.547
537.458
466.355
416.449
389.068
378.347
375.321
374.84
374.803
374.896
375.062
375.193
375.215
375.18
375.077
374.912
374.726
374.555
374.417
374.31
374.221
374.138
374.051
373.957
373.856
373.751
373.647
373.547
373.453
373.368
373.29
373.217
373.147
373.077
373
372.89
372.675
372.13
370.612
3083.44
3080.92
3077.48
3072.71
3066.87
3060.16
3052.8
3045
3036.99
3028.99
3021.17
3013.66
3006.58
2999.99
2993.94
2988.36
2983.21
2978.5
2974.38
2971.04
2968.5
2966.73
2965.96
2966.7
2969.49
2974
2981.38
2993.45
3012.38
3040.57
3075.11
3035.9
2308.29
1525.25
1299.06
1251
1222.4
1197.39
1175.4
1156.1
1138.96
1123.52
1109.47
1096.62
1084.82
1073.94
1063.92
1054.71
1046.29
1038.65
1031.73
1025.49
1019.85
1014.72
1009.99
1005.6
1001.6
997.881
994.349
990.957
987.688
984.535
981.495
978.563
975.737
973.011
970.381
967.842
965.389
963.016
960.72
958.495
956.337
954.243
952.208
950.23
948.305
946.432
944.607
942.828
941.095
939.404
937.755
936.146
934.574
933.039
931.537
930.067
928.629
927.222
925.843
924.494
923.172
921.876
920.606
919.361
918.138
916.939
915.762
914.607
913.473
912.36
911.268
910.195
909.141
908.105
907.089
906.091
905.109
904.139
903.174
902.212
901.259
900.332
899.459
898.659
897.917
897.154
896.21
894.786
892.068
886.602
875.825
855.924
822.32
771.226
702.199
620.544
537.456
466.354
416.449
389.068
378.347
375.321
374.84
374.803
374.896
375.062
375.193
375.215
375.18
375.077
374.912
374.726
374.555
374.417
374.31
374.221
374.138
374.051
373.957
373.856
373.751
373.647
373.547
373.453
373.368
373.29
373.217
373.147
373.077
373
372.89
372.675
372.13
370.612
3075.33
3072.83
3069.41
3064.67
3058.87
3052.2
3044.87
3037.11
3029.14
3021.17
3013.38
3005.9
2998.85
2992.31
2986.29
2980.77
2975.67
2971.03
2967
2963.78
2961.37
2959.75
2959.14
2960.05
2963.03
2967.69
2975.28
2987.76
3007.35
3036.29
3070.14
2986.65
2159.95
1470.12
1289.68
1247.08
1219
1194.31
1172.64
1153.6
1136.66
1121.38
1107.47
1094.74
1083.04
1072.25
1062.3
1053.16
1044.81
1037.22
1030.35
1024.16
1018.57
1013.49
1008.78
1004.44
1000.47
996.787
993.287
989.926
986.687
983.564
980.552
977.648
974.849
972.149
969.545
967.031
964.602
962.253
959.98
957.778
955.643
953.571
951.558
949.601
947.697
945.844
944.039
942.28
940.565
938.894
937.263
935.673
934.119
932.601
931.116
929.664
928.242
926.851
925.489
924.155
922.848
921.568
920.312
919.081
917.872
916.687
915.523
914.381
913.26
912.159
911.078
910.016
908.973
907.949
906.942
905.954
904.982
904.02
903.064
902.11
901.165
900.246
899.38
898.588
897.852
897.097
896.16
894.744
892.031
886.572
875.802
855.907
822.308
771.218
702.194
620.541
537.455
466.354
416.449
389.068
378.347
375.322
374.84
374.803
374.896
375.062
375.193
375.215
375.18
375.077
374.913
374.726
374.555
374.417
374.31
374.221
374.138
374.051
373.957
373.856
373.751
373.647
373.547
373.453
373.368
373.29
373.217
373.147
373.077
373
372.89
372.675
372.13
370.612
3067.52
3065.05
3061.66
3056.95
3051.19
3044.55
3037.26
3029.54
3021.6
3013.66
3005.9
2998.45
2991.44
2984.95
2978.99
2973.52
2968.49
2963.93
2960
2956.91
2954.63
2953.15
2952.69
2953.77
2956.93
2961.78
2969.63
2982.71
3003.29
3033.11
3063.24
2903.65
1996.1
1416.64
1280.4
1242.49
1214.94
1190.65
1169.37
1150.64
1133.94
1118.85
1105.1
1092.5
1080.91
1070.23
1060.37
1051.31
1043.03
1035.5
1028.69
1022.55
1017.01
1011.97
1007.29
1003
999.074
995.423
991.957
988.629
985.422
982.329
979.347
976.473
973.702
971.03
968.453
965.965
963.562
961.239
958.99
956.813
954.701
952.652
950.663
948.728
946.847
945.016
943.233
941.495
939.802
938.151
936.541
934.97
933.437
931.938
930.473
929.039
927.637
926.264
924.92
923.604
922.315
921.053
919.815
918.6
917.409
916.24
915.092
913.966
912.861
911.776
910.71
909.663
908.635
907.624
906.632
905.658
904.699
903.751
902.808
901.868
900.936
900.031
899.179
898.4
897.679
896.939
896.016
894.618
891.919
886.477
875.724
855.846
822.264
771.19
702.178
620.533
537.451
466.352
416.448
389.068
378.347
375.322
374.84
374.803
374.896
375.062
375.193
375.215
375.18
375.077
374.913
374.726
374.555
374.417
374.31
374.221
374.138
374.051
373.957
373.856
373.751
373.647
373.547
373.453
373.368
373.29
373.217
373.147
373.077
373
372.89
372.675
372.13
370.612
3060.11
3057.67
3054.31
3049.64
3043.91
3037.32
3030.07
3022.39
3014.49
3006.58
2998.85
2991.44
2984.48
2978.04
2972.15
2966.75
2961.79
2957.33
2953.51
2950.54
2948.39
2947.01
2946.67
2947.93
2951.26
2956.32
2964.59
2978.49
3000.34
3030.89
3051.92
2763.97
1829.58
1369.12
1271.51
1237.22
1210.24
1186.44
1165.61
1147.24
1130.81
1115.94
1102.37
1089.93
1078.47
1067.9
1058.14
1049.17
1040.96
1033.5
1026.75
1020.67
1015.19
1010.18
1005.54
1001.31
997.419
993.802
990.372
987.078
983.904
980.842
977.891
975.046
972.304
969.66
967.111
964.65
962.273
959.975
957.752
955.599
953.512
951.488
949.521
947.61
945.752
943.943
942.182
940.467
938.795
937.166
935.577
934.027
932.514
931.036
929.591
928.178
926.795
925.442
924.118
922.822
921.552
920.308
919.089
917.893
916.72
915.569
914.44
913.332
912.244
911.176
910.127
909.098
908.086
907.093
906.117
905.16
904.218
903.287
902.362
901.44
900.526
899.64
898.808
898.05
897.351
896.636
895.736
894.366
891.691
886.278
875.555
855.707
822.155
771.11
702.127
620.506
537.44
466.349
416.448
389.068
378.347
375.322
374.84
374.803
374.896
375.062
375.193
375.215
375.18
375.077
374.913
374.726
374.555
374.417
374.31
374.221
374.138
374.051
373.957
373.856
373.751
373.647
373.547
373.453
373.368
373.29
373.217
373.147
373.077
373
372.89
372.675
372.13
370.612
3053.18
3050.77
3047.44
3042.81
3037.12
3030.57
3023.36
3015.72
3007.86
2999.99
2992.31
2984.95
2978.04
2971.67
2965.85
2960.53
2955.65
2951.28
2947.57
2944.7
2942.65
2941.36
2941.15
2942.62
2946.15
2951.56
2960.51
2975.48
2999.13
3029.93
3026.78
2546.33
1666.91
1332.58
1262.92
1231.3
1204.93
1181.72
1161.39
1143.42
1127.29
1112.67
1099.31
1087.04
1075.73
1065.28
1055.64
1046.76
1038.63
1031.25
1024.57
1018.54
1013.12
1008.16
1003.56
999.371
995.528
991.948
988.552
985.293
982.152
979.122
976.201
973.385
970.672
968.057
965.534
963.1
960.749
958.477
956.279
954.151
952.088
950.086
948.143
946.255
944.419
942.633
940.894
939.2
937.55
935.942
934.375
932.846
931.354
929.896
928.472
927.078
925.716
924.383
923.078
921.801
920.551
919.327
918.126
916.95
915.796
914.663
913.552
912.462
911.393
910.343
909.313
908.301
907.308
906.333
905.377
904.439
903.517
902.606
901.703
900.803
899.913
899.052
898.246
897.515
896.846
896.164
895.295
893.958
891.321
885.948
875.265
855.459
821.948
770.948
702.011
620.435
537.405
466.337
416.445
389.068
378.347
375.322
374.84
374.803
374.896
375.062
375.193
375.215
375.18
375.077
374.913
374.726
374.555
374.417
374.31
374.221
374.138
374.051
373.957
373.856
373.751
373.647
373.547
373.453
373.368
373.29
373.217
373.147
373.077
373
372.89
372.675
372.13
370.612
3046.74
3044.37
3041.08
3036.49
3030.84
3024.33
3017.17
3009.57
3001.76
2993.94
2986.29
2978.99
2972.15
2965.85
2960.1
2954.85
2950.04
2945.74
2942.14
2939.37
2937.42
2936.22
2936.17
2937.96
2941.82
2947.77
2957.76
2974.26
2999.5
3028.56
2972.14
2260.19
1525.98
1305.79
1254.46
1224.73
1199.06
1176.52
1156.76
1139.22
1123.43
1109.09
1095.96
1083.88
1072.73
1062.41
1052.88
1044.11
1036.08
1028.77
1022.16
1016.21
1010.84
1005.92
1001.37
997.226
993.426
989.882
986.522
983.298
980.189
977.191
974.3
971.514
968.828
966.24
963.745
961.336
959.011
956.764
954.59
952.485
950.446
948.467
946.547
944.681
942.867
941.102
939.384
937.712
936.082
934.495
932.947
931.439
929.967
928.529
927.124
925.75
924.407
923.093
921.808
920.55
919.319
918.113
916.931
915.773
914.637
913.523
912.431
911.359
910.308
909.277
908.265
907.272
906.298
905.343
904.407
903.491
902.591
901.705
900.826
899.953
899.092
898.261
897.488
896.791
896.157
895.516
894.689
893.383
890.797
885.471
874.837
855.078
821.618
770.672
701.797
620.289
537.322
466.299
416.432
389.065
378.347
375.322
374.84
374.803
374.896
375.062
375.193
375.215
375.18
375.077
374.913
374.726
374.555
374.417
374.31
374.221
374.138
374.051
373.957
373.856
373.751
373.647
373.547
373.453
373.368
373.29
373.217
373.147
373.077
373
372.89
372.675
372.13
370.612
3040.77
3038.43
3035.18
3030.64
3025.04
3018.57
3011.46
3003.9
2996.14
2988.36
2980.77
2973.52
2966.75
2960.53
2954.85
2949.64
2944.88
2940.66
2937.19
2934.54
2932.72
2931.66
2931.87
2934.14
2938.42
2945.15
2956.58
2974.95
3001.06
3022.49
2840.74
1962.97
1420.04
1285.62
1245.9
1217.54
1192.67
1170.9
1151.75
1134.68
1119.26
1105.21
1092.33
1080.45
1069.48
1059.31
1049.91
1041.25
1033.31
1026.09
1019.56
1013.67
1008.36
1003.49
998.985
994.893
991.136
987.631
984.306
981.116
978.04
975.073
972.212
969.454
966.797
964.235
961.765
959.382
957.081
954.858
952.708
950.626
948.608
946.652
944.753
942.908
941.115
939.371
937.673
936.02
934.411
932.843
931.315
929.825
928.372
926.953
925.566
924.211
922.886
921.59
920.323
919.083
917.87
916.681
915.517
914.377
913.258
912.162
911.086
910.032
908.999
907.986
906.993
906.02
905.066
904.132
903.219
902.326
901.452
900.592
899.743
898.9
898.073
897.277
896.541
895.883
895.291
894.697
893.919
892.646
890.112
884.837
874.257
854.55
821.142
770.256
701.455
620.036
537.16
466.213
416.396
389.053
378.345
375.321
374.84
374.803
374.896
375.063
375.193
375.215
375.18
375.077
374.913
374.726
374.555
374.417
374.31
374.221
374.138
374.051
373.957
373.856
373.751
373.647
373.547
373.453
373.368
373.29
373.217
373.147
373.077
373
372.89
372.675
372.13
370.612
3035.18
3032.89
3029.69
3025.2
3019.65
3013.23
3006.16
2998.66
2990.94
2983.21
2975.67
2968.49
2961.79
2955.65
2950.04
2944.88
2940.18
2936.08
2932.78
2930.3
2928.64
2927.84
2928.45
2931.32
2936.09
2943.86
2956.88
2977.53
3003.25
2998.01
2567.38
1702.62
1348.96
1270.56
1237.03
1209.79
1185.86
1164.91
1146.4
1129.82
1114.8
1101.07
1088.46
1076.8
1066.01
1056.01
1046.74
1038.2
1030.36
1023.23
1016.78
1010.97
1005.72
1000.89
996.439
992.397
988.684
985.217
981.928
978.772
975.728
972.792
969.96
967.23
964.6
962.064
959.62
957.261
954.984
952.783
950.655
948.595
946.599
944.664
942.785
940.96
939.187
937.462
935.783
934.149
932.558
931.008
929.498
928.026
926.591
925.189
923.82
922.482
921.174
919.895
918.644
917.421
916.224
915.052
913.904
912.78
911.678
910.597
909.539
908.502
907.486
906.491
905.517
904.563
903.631
902.72
901.831
900.964
900.118
899.289
898.471
897.663
896.873
896.116
895.422
894.809
894.261
893.717
892.992
891.758
889.274
884.051
873.521
853.863
820.505
769.678
700.957
619.645
536.892
466.056
416.318
389.019
378.335
375.319
374.84
374.803
374.896
375.063
375.193
375.215
375.18
375.077
374.913
374.726
374.555
374.417
374.31
374.221
374.138
374.051
373.957
373.856
373.751
373.647
373.547
373.453
373.368
373.29
373.217
373.147
373.077
373
372.89
372.675
372.13
370.612
3029.98
3027.74
3024.59
3020.15
3014.66
3008.3
3001.28
2993.83
2986.17
2978.5
2971.03
2963.93
2957.33
2951.28
2945.74
2940.66
2936.08
2932.16
2929.09
2926.81
2925.33
2924.89
2926.04
2929.47
2934.92
2944.11
2959.36
2981.6
3003.1
2914.42
2172.83
1503.92
1308.09
1257.96
1227.67
1201.56
1178.68
1158.6
1140.76
1124.7
1110.09
1096.7
1084.37
1072.95
1062.35
1052.52
1043.4
1034.98
1027.25
1020.21
1013.85
1008.12
1002.93
998.144
993.749
989.757
986.09
982.662
979.409
976.287
973.276
970.37
967.567
964.865
962.26
959.75
957.33
954.995
952.74
950.562
948.455
946.416
944.44
942.525
940.665
938.86
937.105
935.398
933.737
932.121
930.547
929.014
927.52
926.065
924.646
923.26
921.907
920.585
919.293
918.029
916.794
915.585
914.403
913.246
912.114
911.004
909.918
908.853
907.81
906.79
905.791
904.815
903.86
902.928
902.018
901.131
900.268
899.43
898.615
897.819
897.037
896.266
895.516
894.801
894.152
893.586
893.086
892.591
891.92
890.729
888.292
883.118
872.634
853.018
819.7
768.923
700.281
619.089
536.489
465.802
416.179
388.946
378.309
375.309
374.836
374.802
374.896
375.063
375.193
375.215
375.18
375.077
374.913
374.726
374.555
374.417
374.31
374.221
374.138
374.051
373.957
373.856
373.751
373.647
373.547
373.453
373.368
373.29
373.217
373.147
373.077
373
372.89
372.675
372.13
370.612
3025.26
3023.09
3020
3015.63
3010.2
3003.9
2996.94
2989.56
2981.96
2974.38
2967
2960
2953.51
2947.57
2942.14
2937.19
2932.78
2929.09
2926.26
2924.17
2922.86
2922.79
2924.64
2928.74
2935.42
2946.54
2964.28
2986.73
2986.86
2665.53
1799.43
1381.62
1282.94
1246.17
1217.81
1192.95
1171.2
1152.02
1134.86
1119.34
1105.16
1092.13
1080.08
1068.91
1058.52
1048.86
1039.9
1031.61
1024
1017.06
1010.79
1005.13
1000.01
995.276
990.933
986.993
983.373
979.986
976.769
973.681
970.702
967.826
965.051
962.376
959.798
957.312
954.915
952.603
950.371
948.214
946.128
944.108
942.152
940.255
938.415
936.627
934.889
933.2
931.556
929.956
928.398
926.881
925.403
923.963
922.559
921.188
919.85
918.542
917.264
916.015
914.793
913.599
912.431
911.288
910.169
909.073
908.001
906.951
905.924
904.92
903.94
902.982
902.048
901.138
900.253
899.393
898.559
897.751
896.969
896.209
895.465
894.735
894.026
893.356
892.753
892.235
891.783
891.337
890.719
889.573
887.18
882.05
871.603
852.016
818.721
767.979
699.408
618.347
535.926
465.429
415.96
388.818
378.251
375.287
374.826
374.798
374.894
375.063
375.193
375.215
375.181
375.077
374.913
374.726
374.555
374.417
374.31
374.221
374.138
374.051
373.957
373.856
373.751
373.647
373.547
373.453
373.368
373.29
373.217
373.147
373.077
373
372.89
372.675
372.13
370.612
3021.21
3019.11
3016.09
3011.8
3006.45
3000.22
2993.33
2986.02
2978.52
2971.04
2963.78
2956.91
2950.54
2944.7
2939.37
2934.54
2930.3
2926.81
2924.17
2922.29
2921.28
2921.78
2924.68
2929.84
2938.29
2951.42
2970.85
2988.08
2901.82
2206.86
1529.21
1319.6
1265.67
1234.33
1207.55
1184.09
1163.5
1145.21
1128.75
1113.77
1100.04
1087.37
1075.63
1064.71
1054.54
1045.07
1036.26
1028.11
1020.61
1013.78
1007.6
1002.03
996.976
992.298
988.011
984.122
980.55
977.205
974.025
970.971
968.024
965.178
962.431
959.783
957.23
954.768
952.395
950.104
947.893
945.757
943.691
941.691
939.753
937.874
936.051
934.28
932.559
930.886
929.258
927.673
926.131
924.629
923.165
921.74
920.35
918.993
917.668
916.374
915.109
913.872
912.664
911.482
910.327
909.196
908.091
907.009
905.95
904.916
903.905
902.918
901.956
901.018
900.107
899.221
898.362
897.531
896.728
895.954
895.207
894.485
893.78
893.092
892.427
891.801
891.245
890.775
890.371
889.972
889.404
888.305
885.952
880.858
870.438
850.863
817.57
766.84
698.327
617.398
535.183
464.916
415.644
388.618
378.141
375.242
374.803
374.786
374.888
375.062
375.193
375.216
375.181
375.077
374.913
374.726
374.555
374.417
374.31
374.221
374.138
374.051
373.957
373.856
373.751
373.647
373.547
373.453
373.368
373.29
373.217
373.147
373.077
373
372.89
372.675
372.13
370.612
3017.89
3015.88
3012.94
3008.74
3003.47
2997.31
2990.5
2983.27
2975.86
2968.5
2961.37
2954.63
2948.39
2942.65
2937.42
2932.72
2928.64
2925.33
2922.86
2921.28
2920.95
2922.59
2926.72
2933.43
2943.62
2959.68
2978.05
2962.91
2592.39
1760.1
1379.6
1287.49
1250.86
1222.18
1197.06
1175.06
1155.63
1138.22
1122.45
1108.02
1094.75
1082.45
1071.03
1060.37
1050.42
1041.14
1032.5
1024.49
1017.12
1010.4
1004.32
998.83
993.845
989.225
984.996
981.159
977.635
974.333
971.191
968.172
965.257
962.441
959.722
957.1
954.571
952.134
949.782
947.514
945.323
943.207
941.16
939.179
937.259
935.398
933.591
931.837
930.132
928.474
926.861
925.291
923.762
922.274
920.825
919.412
918.035
916.691
915.379
914.097
912.844
911.62
910.423
909.253
908.11
906.992
905.899
904.83
903.786
902.767
901.773
900.804
899.862
898.947
898.059
897.2
896.37
895.569
894.8
894.061
893.352
892.669
892.005
891.36
890.738
890.157
889.647
889.224
888.868
888.513
887.991
886.936
884.619
879.554
869.146
849.564
816.248
765.503
697.027
616.231
534.245
464.247
415.221
388.338
377.954
375.167
374.76
374.761
374.873
375.056
375.193
375.216
375.181
375.078
374.913
374.726
374.555
374.417
374.31
374.221
374.138
374.051
373.957
373.856
373.751
373.647
373.547
373.453
373.368
373.29
373.217
373.147
373.077
373
372.89
372.675
372.13
370.612
3015.29
3013.38
3010.52
3006.39
3001.2
2995.12
2988.39
2981.26
2973.96
2966.73
2959.75
2953.15
2947.01
2941.36
2936.22
2931.66
2927.84
2924.89
2922.79
2921.78
2922.59
2925.81
2931.02
2939.42
2952.22
2969.13
2972.76
2807.31
2043.49
1475.93
1314.12
1267.19
1236.44
1209.81
1186.47
1165.93
1147.62
1131.08
1115.99
1102.13
1089.31
1077.4
1066.29
1055.91
1046.19
1037.1
1028.63
1020.77
1013.53
1006.92
1000.94
995.54
990.628
986.069
981.899
978.116
974.641
971.383
968.28
965.296
962.414
959.628
956.937
954.34
951.836
949.422
947.092
944.845
942.675
940.578
938.549
936.586
934.684
932.839
931.049
929.31
927.62
925.977
924.378
922.822
921.307
919.832
918.396
916.996
915.631
914.299
912.999
911.728
910.487
909.274
908.088
906.93
905.798
904.692
903.612
902.557
901.528
900.525
899.548
898.6
897.679
896.788
895.927
895.097
894.297
893.53
892.795
892.094
891.423
890.78
890.159
889.556
888.977
888.441
887.975
887.597
887.286
886.973
886.494
885.48
883.194
878.147
867.738
848.126
814.758
763.966
695.504
614.835
533.1
463.411
414.681
387.974
377.668
375.044
374.692
374.713
374.843
375.042
375.188
375.215
375.181
375.078
374.913
374.726
374.555
374.417
374.31
374.221
374.138
374.051
373.957
373.856
373.751
373.647
373.547
373.454
373.368
373.29
373.217
373.147
373.077
373
372.89
372.675
372.13
370.612
3013.48
3011.68
3008.93
3004.93
2999.84
2993.86
2987.22
2980.2
2973.04
2965.96
2959.14
2952.69
2946.67
2941.15
2936.17
2931.87
2928.45
2926.04
2924.64
2924.68
2926.72
2931.02
2937.95
2948.58
2963.1
2972.06
2890.36
2307.8
1597.4
1347.65
1283.14
1249.86
1221.96
1197.45
1175.91
1156.76
1139.52
1123.82
1109.42
1096.11
1083.75
1072.22
1061.44
1051.33
1041.85
1032.97
1024.67
1016.96
1009.85
1003.36
997.479
992.171
987.333
982.84
978.731
975.004
971.577
968.364
965.302
962.354
959.505
956.749
954.086
951.515
949.036
946.644
944.336
942.109
939.959
937.881
935.87
933.925
932.039
930.211
928.436
926.712
925.037
923.408
921.823
920.28
918.779
917.316